/*--------------------------------*- C++ -*----------------------------------*\
| =========                 |                                                 |
| \\      /  F ield         | foam-extend: Open Source CFD                    |
|  \\    /   O peration     | Version:     3.2                                |
|   \\  /    A nd           | Web:         http://www.foam-extend.org         |
|    \\/     M anipulation  | For copyright notice see file Copyright         |
\*---------------------------------------------------------------------------*/
FoamFile
{
    version     2.0;
    format      ascii;
    class       regIOobject;
    location    "0.02/uniform";
    object      profilingInfo;
}
// * * * * * * * * * * * * * * * * * * * * * * * * * * * * * * * * * * * * * //

profilingInfo
(

    {
        id              14;
        parentId        13;
        description     "Foam::Time::writeObject - outputTime";
        calls           2;
        totalTime       -1.40735e+14;
        childTime       0;
        onStack         1;
    }

    {
        id              13;
        parentId        1;
        description     "Foam::Time::writeObject";
        calls           2;
        totalTime       1.45685e+09;
        childTime       -1.40735e+14;
        onStack         1;
    }

    {
        id              1;
        description     "application::main";
        calls           1;
        totalTime       35.6478;
        childTime       1.45685e+09;
        onStack         1;
    }

    {
        id              3;
        parentId        2;
        description     "functionObjectList::read";
        calls           1;
        totalTime       2.8e-05;
        childTime       0;
        onStack         0;
    }

    {
        id              10;
        parentId        1;
        description     "functionObjects_.execute()";
        calls           19;
        totalTime       0.000126;
        childTime       0;
        onStack         0;
    }

    {
        id              2;
        parentId        1;
        description     "functionObjects_.start()";
        calls           1;
        totalTime       8.7e-05;
        childTime       2.8e-05;
        onStack         0;
    }

    {
        id              4;
        parentId        1;
        description     "fvMatrix::solve_U";
        calls           20;
        totalTime       0.021167;
        childTime       0.017236;
        onStack         0;
    }

    {
        id              7;
        parentId        1;
        description     "fvMatrix::solve_p";
        calls           80;
        totalTime       32.5901;
        childTime       32.5824;
        onStack         0;
    }

    {
        id              5;
        parentId        4;
        description     "lduMatrix::solver_Uy";
        calls           20;
        totalTime       0.009663;
        childTime       0;
        onStack         0;
    }

    {
        id              6;
        parentId        4;
        description     "lduMatrix::solver_Uz";
        calls           20;
        totalTime       0.007573;
        childTime       0;
        onStack         0;
    }

    {
        id              9;
        parentId        8;
        description     "lduMatrix::solver_coarsestLevelCorr";
        calls           80000;
        totalTime       1.68317;
        childTime       0;
        onStack         0;
    }

    {
        id              11;
        parentId        1;
        description     "lduMatrix::solver_motionUy";
        calls           3;
        totalTime       0.263214;
        childTime       0;
        onStack         0;
    }

    {
        id              12;
        parentId        1;
        description     "lduMatrix::solver_motionUz";
        calls           3;
        totalTime       0.253277;
        childTime       0;
        onStack         0;
    }

    {
        id              8;
        parentId        7;
        description     "lduMatrix::solver_p";
        calls           80;
        totalTime       32.5824;
        childTime       1.68317;
        onStack         0;
    }
);


// ************************************************************************* //
