/*--------------------------------*- C++ -*----------------------------------*\
| =========                 |                                                 |
| \\      /  F ield         | foam-extend: Open Source CFD                    |
|  \\    /   O peration     | Version:     3.1                                |
|   \\  /    A nd           | Web:         http://www.extend-project.de       |
|    \\/     M anipulation  |                                                 |
\*---------------------------------------------------------------------------*/
FoamFile
{
    version     2.0;
    format      ascii;
    class       volScalarField::DimensionedInternalField;
    location    "0.005";
    object      V0;
}
// * * * * * * * * * * * * * * * * * * * * * * * * * * * * * * * * * * * * * //

dimensions      [0 3 0 0 0 0 0];

value           nonuniform List<scalar> 
20940
(
1.17101e-06
1.03798e-06
9.20948e-07
8.17913e-07
7.27142e-07
6.47117e-07
5.76515e-07
5.14176e-07
4.5909e-07
4.1037e-07
3.67245e-07
3.29036e-07
2.95151e-07
2.65073e-07
2.38346e-07
2.14573e-07
1.93405e-07
1.74537e-07
1.577e-07
1.42658e-07
1.29205e-07
1.17159e-07
1.17117e-06
1.03812e-06
9.21071e-07
8.18022e-07
7.27239e-07
6.47205e-07
5.76595e-07
5.1425e-07
4.59158e-07
4.10434e-07
3.67304e-07
3.29092e-07
2.95204e-07
2.65123e-07
2.38394e-07
2.14619e-07
1.93449e-07
1.74579e-07
1.5774e-07
1.42696e-07
1.29242e-07
1.17194e-07
1.17375e-06
1.04041e-06
9.23102e-07
8.19828e-07
7.28847e-07
6.48639e-07
5.77875e-07
5.15395e-07
4.60184e-07
4.11355e-07
3.68132e-07
3.29837e-07
2.95876e-07
2.6573e-07
2.38943e-07
2.15116e-07
1.939e-07
1.74989e-07
1.58113e-07
1.43036e-07
1.29551e-07
1.17476e-07
1.17804e-06
1.04421e-06
9.26476e-07
8.22825e-07
7.31514e-07
6.51016e-07
5.79996e-07
5.1729e-07
4.61879e-07
4.12873e-07
3.69494e-07
3.31061e-07
2.96978e-07
2.66722e-07
2.39838e-07
2.15925e-07
1.94631e-07
1.75651e-07
1.58713e-07
1.43581e-07
1.30047e-07
1.17927e-07
1.18334e-06
1.04894e-06
9.30705e-07
8.26613e-07
7.34911e-07
6.54066e-07
5.82739e-07
5.1976e-07
4.64107e-07
4.14885e-07
3.71314e-07
3.32708e-07
2.98471e-07
2.68078e-07
2.4107e-07
2.17045e-07
1.95653e-07
1.76582e-07
1.59563e-07
1.44358e-07
1.30758e-07
1.18578e-07
1.1902e-06
1.0551e-06
9.36227e-07
8.31575e-07
7.39376e-07
6.58089e-07
5.86368e-07
5.23038e-07
4.67072e-07
4.1757e-07
3.73748e-07
3.34919e-07
3.0048e-07
2.69906e-07
2.42735e-07
2.18565e-07
1.9704e-07
1.7785e-07
1.60723e-07
1.4542e-07
1.31731e-07
1.19471e-07
1.19856e-06
1.06262e-06
9.43006e-07
8.37694e-07
7.44905e-07
6.63092e-07
5.90902e-07
5.27151e-07
4.70807e-07
4.20967e-07
3.76841e-07
3.37737e-07
3.03051e-07
2.72254e-07
2.44883e-07
2.2053e-07
1.9884e-07
1.795e-07
1.62237e-07
1.46811e-07
1.33009e-07
1.20647e-07
1.20841e-06
1.07153e-06
9.51076e-07
8.45011e-07
7.51548e-07
6.69131e-07
5.96396e-07
5.32157e-07
4.75373e-07
4.25135e-07
3.8065e-07
3.41222e-07
3.06243e-07
2.75179e-07
2.47566e-07
2.22993e-07
2.01104e-07
1.81582e-07
1.64154e-07
1.48576e-07
1.34636e-07
1.22147e-07
1.21974e-06
1.08183e-06
9.60449e-07
8.5355e-07
7.59336e-07
6.76241e-07
6.02895e-07
5.38102e-07
4.80817e-07
4.30126e-07
3.85228e-07
3.45426e-07
3.10106e-07
2.78733e-07
2.50836e-07
2.26005e-07
2.03879e-07
1.84142e-07
1.66516e-07
1.50757e-07
1.36651e-07
1.2401e-07
1.23251e-06
1.09349e-06
9.71113e-07
8.63312e-07
7.68282e-07
6.84445e-07
6.10426e-07
5.45022e-07
4.87179e-07
4.3598e-07
3.9062e-07
3.50394e-07
3.14687e-07
2.82959e-07
2.54738e-07
2.2961e-07
2.07211e-07
1.87223e-07
1.69366e-07
1.53395e-07
1.39093e-07
1.26272e-07
1.24647e-06
1.10633e-06
9.82925e-07
8.74187e-07
7.78302e-07
6.93684e-07
6.1895e-07
5.5289e-07
4.94448e-07
4.42698e-07
3.96831e-07
3.56141e-07
3.20006e-07
2.87885e-07
2.59301e-07
2.33838e-07
2.11131e-07
1.90858e-07
1.72738e-07
1.56523e-07
1.41997e-07
1.28968e-07
1.26205e-06
1.1207e-06
9.96201e-07
8.86454e-07
7.89642e-07
7.04173e-07
6.28656e-07
5.61877e-07
5.02771e-07
4.5041e-07
4.0398e-07
3.6277e-07
3.26155e-07
2.9359e-07
2.64596e-07
2.38754e-07
2.15695e-07
1.95098e-07
1.76677e-07
1.60183e-07
1.45399e-07
1.3213e-07
1.27846e-06
1.13596e-06
1.01039e-06
8.99654e-07
8.01923e-07
7.15601e-07
6.39292e-07
5.71775e-07
5.11985e-07
4.58988e-07
4.11967e-07
3.70206e-07
3.33079e-07
3.00038e-07
2.70601e-07
2.44347e-07
2.20904e-07
1.99949e-07
1.81196e-07
1.64393e-07
1.49321e-07
1.35783e-07
1.29576e-06
1.15217e-06
1.02556e-06
9.1385e-07
8.15205e-07
7.28025e-07
6.5091e-07
5.82639e-07
5.2214e-07
4.68479e-07
4.20835e-07
3.78491e-07
3.40819e-07
3.07267e-07
2.77352e-07
2.5065e-07
2.2679e-07
2.05443e-07
1.86324e-07
1.6918e-07
1.53787e-07
1.39952e-07
1.31373e-06
1.16913e-06
1.04155e-06
9.28916e-07
8.29388e-07
7.41366e-07
6.63451e-07
5.9442e-07
5.33202e-07
4.78859e-07
4.30571e-07
3.87619e-07
3.49373e-07
3.1528e-07
2.84856e-07
2.57675e-07
2.33364e-07
2.11594e-07
1.92077e-07
1.74559e-07
1.58817e-07
1.44653e-07
1.24211e-06
1.10801e-06
9.8953e-07
8.84742e-07
7.91985e-07
7.09799e-07
6.36909e-07
5.72199e-07
5.14691e-07
4.6353e-07
4.17966e-07
3.77341e-07
3.4108e-07
3.08675e-07
2.79684e-07
2.53715e-07
2.30427e-07
2.09515e-07
1.90717e-07
1.73796e-07
1.58547e-07
1.44789e-07
1.219e-06
1.08689e-06
9.70187e-07
8.67017e-07
7.75725e-07
6.9487e-07
6.23188e-07
5.59577e-07
5.03071e-07
4.52823e-07
4.08092e-07
3.6823e-07
3.32666e-07
3.009e-07
2.72495e-07
2.47063e-07
2.24268e-07
2.03811e-07
1.8543e-07
1.68895e-07
1.54001e-07
1.40569e-07
1.19702e-06
1.06684e-06
9.51882e-07
8.50283e-07
7.60411e-07
6.8084e-07
6.10322e-07
5.47767e-07
4.9222e-07
4.42844e-07
3.98908e-07
3.59769e-07
3.24866e-07
2.93704e-07
2.6585e-07
2.40925e-07
2.18593e-07
1.98562e-07
1.80571e-07
1.64395e-07
1.49831e-07
1.36704e-07
1.17632e-06
1.04801e-06
9.34725e-07
8.34634e-07
7.46122e-07
6.67777e-07
5.98368e-07
5.36816e-07
4.82178e-07
4.33627e-07
3.90439e-07
3.51982e-07
3.17698e-07
2.87101e-07
2.59764e-07
2.3531e-07
2.13409e-07
1.93772e-07
1.76144e-07
1.60299e-07
1.4604e-07
1.33193e-07
1.15702e-06
1.03048e-06
9.18798e-07
8.2014e-07
7.32915e-07
6.5573e-07
5.87366e-07
5.26758e-07
4.72972e-07
4.25192e-07
3.82703e-07
3.4488e-07
3.11173e-07
2.811e-07
2.5424e-07
2.30221e-07
2.08717e-07
1.89443e-07
1.72147e-07
1.56606e-07
1.42625e-07
1.30034e-07
1.13892e-06
1.0141e-06
9.03951e-07
8.0667e-07
7.20679e-07
6.44601e-07
5.77232e-07
5.17519e-07
4.64539e-07
4.17487e-07
3.75655e-07
3.38426e-07
3.05257e-07
2.75672e-07
2.49255e-07
2.25638e-07
2.04501e-07
1.8556e-07
1.68568e-07
1.53305e-07
1.39579e-07
1.2722e-07
1.12285e-06
9.99562e-07
8.90785e-07
7.9473e-07
7.09838e-07
6.34746e-07
5.68262e-07
5.09345e-07
4.57082e-07
4.10676e-07
3.69428e-07
3.32726e-07
3.00034e-07
2.70881e-07
2.44856e-07
2.21596e-07
2.00783e-07
1.82138e-07
1.65415e-07
1.50398e-07
1.36896e-07
1.24743e-07
1.10819e-06
9.86338e-07
8.7884e-07
7.83927e-07
7.00055e-07
6.25875e-07
5.60209e-07
5.02024e-07
4.5042e-07
4.04606e-07
3.6389e-07
3.27669e-07
2.9541e-07
2.6665e-07
2.40979e-07
2.1804e-07
1.97519e-07
1.79139e-07
1.62656e-07
1.47858e-07
1.34557e-07
1.22586e-07
1.09515e-06
9.74604e-07
8.68262e-07
7.74378e-07
6.91424e-07
6.18064e-07
5.53131e-07
4.95602e-07
4.44586e-07
3.99299e-07
3.59058e-07
3.23263e-07
2.91389e-07
2.62975e-07
2.37618e-07
2.14962e-07
1.94697e-07
1.7655e-07
1.60278e-07
1.45672e-07
1.32545e-07
1.20733e-07
1.08375e-06
9.64351e-07
8.59035e-07
7.66064e-07
6.83923e-07
6.11288e-07
5.47002e-07
4.90051e-07
4.39552e-07
3.94729e-07
3.54903e-07
3.19482e-07
2.87943e-07
2.59832e-07
2.34747e-07
2.12337e-07
1.92294e-07
1.74348e-07
1.58259e-07
1.43818e-07
1.30841e-07
1.19166e-07
1.07394e-06
9.55553e-07
8.5113e-07
7.58953e-07
6.77518e-07
6.05512e-07
5.41786e-07
4.85336e-07
4.35283e-07
3.90859e-07
3.51391e-07
3.1629e-07
2.8504e-07
2.57187e-07
2.32335e-07
2.10135e-07
1.90282e-07
1.72506e-07
1.56572e-07
1.42272e-07
1.29422e-07
1.17862e-07
1.06569e-06
9.4816e-07
8.44498e-07
7.52996e-07
6.72161e-07
6.00688e-07
5.37437e-07
4.81409e-07
4.31734e-07
3.87647e-07
3.48481e-07
3.1365e-07
2.82641e-07
2.55006e-07
2.30349e-07
2.08324e-07
1.88629e-07
1.70996e-07
1.55191e-07
1.41007e-07
1.28262e-07
1.16798e-07
1.05893e-06
9.42106e-07
8.39074e-07
7.4813e-07
6.67791e-07
5.96758e-07
5.33898e-07
4.78219e-07
4.28854e-07
3.85045e-07
3.46126e-07
3.11516e-07
2.80706e-07
2.53248e-07
2.2875e-07
2.06869e-07
1.87303e-07
1.69786e-07
1.54085e-07
1.39995e-07
1.27337e-07
1.15949e-07
1.05365e-06
9.37384e-07
8.34843e-07
7.44335e-07
6.64382e-07
5.93692e-07
5.31138e-07
4.75731e-07
4.26609e-07
3.83016e-07
3.44291e-07
3.09854e-07
2.79199e-07
2.51879e-07
2.27506e-07
2.05737e-07
1.86271e-07
1.68845e-07
1.53226e-07
1.3921e-07
1.26618e-07
1.15291e-07
1.04938e-06
9.33578e-07
8.31443e-07
7.41295e-07
6.6166e-07
5.91254e-07
5.2895e-07
4.73767e-07
4.24843e-07
3.81426e-07
3.42858e-07
3.08561e-07
2.7803e-07
2.50822e-07
2.26549e-07
2.04869e-07
1.85483e-07
1.68129e-07
1.52574e-07
1.38617e-07
1.26077e-07
1.14797e-07
1.17426e-06
1.0468e-06
9.34189e-07
8.34614e-07
7.46493e-07
6.68441e-07
5.99244e-07
5.3784e-07
4.833e-07
4.34807e-07
3.91648e-07
3.53194e-07
3.18898e-07
2.88275e-07
2.60901e-07
2.36405e-07
2.14457e-07
1.94771e-07
1.77093e-07
1.61198e-07
1.46889e-07
1.33994e-07
1.17455e-06
1.04707e-06
9.34445e-07
8.34854e-07
7.46718e-07
6.68652e-07
5.99441e-07
5.38025e-07
4.83472e-07
4.34969e-07
3.91799e-07
3.53336e-07
3.1903e-07
2.88398e-07
2.61017e-07
2.36512e-07
2.14558e-07
1.94865e-07
1.77181e-07
1.6128e-07
1.46966e-07
1.34066e-07
1.1773e-06
1.04955e-06
9.36673e-07
8.36866e-07
7.48536e-07
6.70297e-07
6.00931e-07
5.39377e-07
4.847e-07
4.36085e-07
3.92814e-07
3.54261e-07
3.19874e-07
2.89169e-07
2.61721e-07
2.37157e-07
2.15148e-07
1.95406e-07
1.77677e-07
1.61735e-07
1.47385e-07
1.34451e-07
1.18189e-06
1.05367e-06
9.40382e-07
8.40203e-07
7.51543e-07
6.73009e-07
6.03381e-07
5.41592e-07
4.86705e-07
4.37902e-07
3.94464e-07
3.55759e-07
3.21236e-07
2.90409e-07
2.62852e-07
2.38189e-07
2.16091e-07
1.96268e-07
1.78465e-07
1.62458e-07
1.48047e-07
1.35059e-07
1.18773e-06
1.05895e-06
9.45153e-07
8.44523e-07
7.5546e-07
6.76564e-07
6.06611e-07
5.4453e-07
4.89381e-07
4.40342e-07
3.9669e-07
3.57793e-07
3.23097e-07
2.92112e-07
2.64412e-07
2.39619e-07
2.17404e-07
1.97475e-07
1.79575e-07
1.63479e-07
1.48987e-07
1.35925e-07
1.19547e-06
1.06595e-06
9.5149e-07
8.50268e-07
7.60674e-07
6.81302e-07
6.10921e-07
5.48455e-07
4.9296e-07
4.43607e-07
3.99673e-07
3.60522e-07
3.25594e-07
2.944e-07
2.6651e-07
2.41546e-07
2.19174e-07
1.99101e-07
1.81072e-07
1.64857e-07
1.50258e-07
1.37097e-07
1.2051e-06
1.07468e-06
9.59419e-07
8.57474e-07
7.6723e-07
6.87273e-07
6.16366e-07
5.53425e-07
4.97501e-07
4.47761e-07
4.03476e-07
3.64006e-07
3.2879e-07
2.97334e-07
2.69206e-07
2.44024e-07
2.21455e-07
2.01202e-07
1.83008e-07
1.66643e-07
1.51906e-07
1.38619e-07
1.21672e-06
1.08524e-06
9.69035e-07
8.66236e-07
7.75222e-07
6.9457e-07
6.23036e-07
5.59527e-07
5.03089e-07
4.52883e-07
4.08175e-07
3.68321e-07
3.32756e-07
3.00982e-07
2.72564e-07
2.47117e-07
2.24306e-07
2.03833e-07
1.85436e-07
1.68885e-07
1.53978e-07
1.40535e-07
1.23039e-06
1.09771e-06
9.80406e-07
8.76624e-07
7.84721e-07
7.03266e-07
6.31002e-07
5.66833e-07
5.09795e-07
4.59043e-07
4.13839e-07
3.73533e-07
3.37555e-07
3.05404e-07
2.76642e-07
2.50881e-07
2.27781e-07
2.07043e-07
1.88403e-07
1.7163e-07
1.56518e-07
1.42887e-07
1.24613e-06
1.11209e-06
9.93573e-07
8.88685e-07
7.95779e-07
7.13413e-07
6.40322e-07
5.754e-07
5.17676e-07
4.66299e-07
4.20525e-07
3.79697e-07
3.43242e-07
3.10654e-07
2.81491e-07
2.55363e-07
2.31926e-07
2.10879e-07
1.91954e-07
1.74919e-07
1.59566e-07
1.45712e-07
1.26377e-06
1.12828e-06
1.00844e-06
9.02344e-07
8.08342e-07
7.24977e-07
6.50975e-07
5.8522e-07
5.26734e-07
4.7466e-07
4.28247e-07
3.86833e-07
3.49841e-07
3.1676e-07
2.87143e-07
2.60597e-07
2.36775e-07
2.15373e-07
1.96122e-07
1.78785e-07
1.63154e-07
1.49043e-07
1.28379e-06
1.14668e-06
1.02536e-06
9.17917e-07
8.22686e-07
7.38199e-07
6.6317e-07
5.96476e-07
5.37129e-07
4.84267e-07
4.37129e-07
3.95051e-07
3.57446e-07
3.23803e-07
2.93668e-07
2.66645e-07
2.42383e-07
2.20575e-07
2.0095e-07
1.83266e-07
1.67315e-07
1.52907e-07
1.30545e-06
1.16666e-06
1.04381e-06
9.34965e-07
8.38447e-07
7.52776e-07
6.7666e-07
6.08966e-07
5.48699e-07
4.94989e-07
4.4707e-07
4.04271e-07
3.66001e-07
3.31743e-07
3.0104e-07
2.73492e-07
2.48744e-07
2.26486e-07
2.06444e-07
1.88375e-07
1.72066e-07
1.57327e-07
1.32886e-06
1.18833e-06
1.06388e-06
9.53571e-07
8.55697e-07
7.68776e-07
6.91506e-07
6.22745e-07
5.61493e-07
5.06872e-07
4.58109e-07
4.1453e-07
3.75537e-07
3.40609e-07
3.09286e-07
2.81162e-07
2.5588e-07
2.33127e-07
2.12625e-07
1.94129e-07
1.77422e-07
1.62315e-07
1.35381e-06
1.21153e-06
1.08545e-06
9.73618e-07
8.74341e-07
7.86119e-07
7.07642e-07
6.37761e-07
5.75469e-07
5.19882e-07
4.70222e-07
4.25809e-07
3.86042e-07
3.50394e-07
3.184e-07
2.89653e-07
2.63792e-07
2.405e-07
2.19496e-07
2.00532e-07
1.83391e-07
1.67878e-07
1.35381e-06
1.21153e-06
1.08545e-06
9.73618e-07
8.74341e-07
7.86119e-07
7.07642e-07
6.37761e-07
5.75469e-07
5.19882e-07
4.70222e-07
4.25809e-07
3.86042e-07
3.50394e-07
3.184e-07
2.89653e-07
2.63792e-07
2.405e-07
2.19496e-07
2.00532e-07
1.83391e-07
1.67878e-07
1.32886e-06
1.18833e-06
1.06388e-06
9.53571e-07
8.55697e-07
7.68776e-07
6.91506e-07
6.22745e-07
5.61493e-07
5.06872e-07
4.58109e-07
4.1453e-07
3.75537e-07
3.40609e-07
3.09286e-07
2.81162e-07
2.5588e-07
2.33127e-07
2.12625e-07
1.94129e-07
1.77422e-07
1.62315e-07
1.30545e-06
1.16666e-06
1.04381e-06
9.34965e-07
8.38447e-07
7.52776e-07
6.7666e-07
6.08966e-07
5.48699e-07
4.94989e-07
4.4707e-07
4.04271e-07
3.66001e-07
3.31743e-07
3.0104e-07
2.73492e-07
2.48744e-07
2.26486e-07
2.06444e-07
1.88375e-07
1.72066e-07
1.57327e-07
1.28379e-06
1.14668e-06
1.02536e-06
9.17917e-07
8.22686e-07
7.38199e-07
6.6317e-07
5.96476e-07
5.37129e-07
4.84267e-07
4.37129e-07
3.95051e-07
3.57446e-07
3.23803e-07
2.93668e-07
2.66645e-07
2.42383e-07
2.20575e-07
2.0095e-07
1.83266e-07
1.67315e-07
1.52907e-07
1.26377e-06
1.12828e-06
1.00844e-06
9.02344e-07
8.08342e-07
7.24977e-07
6.50975e-07
5.8522e-07
5.26734e-07
4.7466e-07
4.28247e-07
3.86833e-07
3.49841e-07
3.1676e-07
2.87143e-07
2.60597e-07
2.36775e-07
2.15373e-07
1.96122e-07
1.78785e-07
1.63154e-07
1.49043e-07
1.24613e-06
1.11209e-06
9.93573e-07
8.88685e-07
7.95779e-07
7.13413e-07
6.40322e-07
5.754e-07
5.17676e-07
4.66299e-07
4.20524e-07
3.79697e-07
3.43242e-07
3.10654e-07
2.81491e-07
2.55363e-07
2.31926e-07
2.10879e-07
1.91954e-07
1.74919e-07
1.59566e-07
1.45712e-07
1.23039e-06
1.09771e-06
9.80406e-07
8.76624e-07
7.84721e-07
7.03266e-07
6.31002e-07
5.66833e-07
5.09795e-07
4.59043e-07
4.13839e-07
3.73533e-07
3.37555e-07
3.05404e-07
2.76642e-07
2.50881e-07
2.27781e-07
2.07043e-07
1.88403e-07
1.7163e-07
1.56518e-07
1.42887e-07
1.21672e-06
1.08524e-06
9.69035e-07
8.66236e-07
7.75222e-07
6.9457e-07
6.23036e-07
5.59527e-07
5.03089e-07
4.52883e-07
4.08175e-07
3.68321e-07
3.32756e-07
3.00982e-07
2.72564e-07
2.47117e-07
2.24306e-07
2.03833e-07
1.85436e-07
1.68885e-07
1.53978e-07
1.40535e-07
1.2051e-06
1.07468e-06
9.59419e-07
8.57474e-07
7.6723e-07
6.87273e-07
6.16366e-07
5.53425e-07
4.97501e-07
4.47761e-07
4.03476e-07
3.64006e-07
3.2879e-07
2.97334e-07
2.69206e-07
2.44024e-07
2.21455e-07
2.01202e-07
1.83008e-07
1.66643e-07
1.51906e-07
1.38619e-07
1.19547e-06
1.06595e-06
9.5149e-07
8.50268e-07
7.60674e-07
6.81302e-07
6.10921e-07
5.48455e-07
4.9296e-07
4.43607e-07
3.99673e-07
3.60522e-07
3.25594e-07
2.944e-07
2.6651e-07
2.41546e-07
2.19174e-07
1.99101e-07
1.81072e-07
1.64857e-07
1.50258e-07
1.37097e-07
1.18773e-06
1.05895e-06
9.45153e-07
8.44523e-07
7.5546e-07
6.76564e-07
6.06611e-07
5.4453e-07
4.89381e-07
4.40342e-07
3.9669e-07
3.57793e-07
3.23097e-07
2.92112e-07
2.64412e-07
2.39619e-07
2.17404e-07
1.97475e-07
1.79575e-07
1.63479e-07
1.48987e-07
1.35925e-07
1.18189e-06
1.05367e-06
9.40382e-07
8.40203e-07
7.51543e-07
6.73009e-07
6.03381e-07
5.41592e-07
4.86705e-07
4.37902e-07
3.94464e-07
3.55759e-07
3.21236e-07
2.90409e-07
2.62852e-07
2.38189e-07
2.16091e-07
1.96268e-07
1.78465e-07
1.62458e-07
1.48047e-07
1.35059e-07
1.1773e-06
1.04955e-06
9.36673e-07
8.36866e-07
7.48536e-07
6.70297e-07
6.00931e-07
5.39377e-07
4.847e-07
4.36085e-07
3.92814e-07
3.54261e-07
3.19874e-07
2.89169e-07
2.61721e-07
2.37157e-07
2.15148e-07
1.95406e-07
1.77677e-07
1.61735e-07
1.47385e-07
1.34451e-07
1.17455e-06
1.04707e-06
9.34445e-07
8.34854e-07
7.46718e-07
6.68652e-07
5.99441e-07
5.38025e-07
4.83472e-07
4.34969e-07
3.91799e-07
3.53336e-07
3.1903e-07
2.88398e-07
2.61017e-07
2.36512e-07
2.14558e-07
1.94865e-07
1.77181e-07
1.6128e-07
1.46966e-07
1.34066e-07
1.17426e-06
1.0468e-06
9.34189e-07
8.34614e-07
7.46493e-07
6.68441e-07
5.99244e-07
5.3784e-07
4.833e-07
4.34807e-07
3.91648e-07
3.53194e-07
3.18898e-07
2.88275e-07
2.60901e-07
2.36405e-07
2.14457e-07
1.94771e-07
1.77093e-07
1.61198e-07
1.46889e-07
1.33994e-07
1.17426e-06
1.0468e-06
9.34189e-07
8.34614e-07
7.46493e-07
6.68441e-07
5.99244e-07
5.3784e-07
4.833e-07
4.34807e-07
3.91648e-07
3.53194e-07
3.18898e-07
2.88275e-07
2.60901e-07
2.36405e-07
2.14457e-07
1.94771e-07
1.77093e-07
1.61198e-07
1.46889e-07
1.33994e-07
1.17455e-06
1.04707e-06
9.34445e-07
8.34854e-07
7.46718e-07
6.68652e-07
5.99441e-07
5.38025e-07
4.83472e-07
4.34969e-07
3.91799e-07
3.53336e-07
3.1903e-07
2.88398e-07
2.61017e-07
2.36512e-07
2.14558e-07
1.94865e-07
1.77181e-07
1.6128e-07
1.46966e-07
1.34066e-07
1.1773e-06
1.04955e-06
9.36673e-07
8.36866e-07
7.48536e-07
6.70297e-07
6.00931e-07
5.39377e-07
4.847e-07
4.36085e-07
3.92814e-07
3.54261e-07
3.19874e-07
2.89169e-07
2.61721e-07
2.37157e-07
2.15148e-07
1.95406e-07
1.77677e-07
1.61735e-07
1.47385e-07
1.34451e-07
1.18189e-06
1.05367e-06
9.40382e-07
8.40203e-07
7.51543e-07
6.73009e-07
6.03381e-07
5.41592e-07
4.86705e-07
4.37902e-07
3.94464e-07
3.55759e-07
3.21236e-07
2.90409e-07
2.62852e-07
2.38189e-07
2.16091e-07
1.96268e-07
1.78465e-07
1.62458e-07
1.48047e-07
1.35059e-07
1.18773e-06
1.05895e-06
9.45153e-07
8.44523e-07
7.5546e-07
6.76564e-07
6.06611e-07
5.4453e-07
4.89381e-07
4.40342e-07
3.9669e-07
3.57793e-07
3.23097e-07
2.92112e-07
2.64412e-07
2.39619e-07
2.17404e-07
1.97475e-07
1.79575e-07
1.63479e-07
1.48987e-07
1.35925e-07
1.19547e-06
1.06595e-06
9.5149e-07
8.50268e-07
7.60674e-07
6.81302e-07
6.10921e-07
5.48455e-07
4.9296e-07
4.43607e-07
3.99673e-07
3.60522e-07
3.25594e-07
2.944e-07
2.6651e-07
2.41546e-07
2.19174e-07
1.99101e-07
1.81072e-07
1.64857e-07
1.50258e-07
1.37097e-07
1.2051e-06
1.07468e-06
9.59419e-07
8.57474e-07
7.6723e-07
6.87273e-07
6.16366e-07
5.53425e-07
4.97501e-07
4.47761e-07
4.03476e-07
3.64006e-07
3.2879e-07
2.97334e-07
2.69206e-07
2.44024e-07
2.21455e-07
2.01202e-07
1.83008e-07
1.66643e-07
1.51906e-07
1.38619e-07
1.21672e-06
1.08524e-06
9.69035e-07
8.66236e-07
7.75222e-07
6.9457e-07
6.23036e-07
5.59527e-07
5.03089e-07
4.52883e-07
4.08175e-07
3.68321e-07
3.32756e-07
3.00982e-07
2.72564e-07
2.47117e-07
2.24306e-07
2.03833e-07
1.85436e-07
1.68885e-07
1.53978e-07
1.40535e-07
1.23039e-06
1.09771e-06
9.80406e-07
8.76624e-07
7.84721e-07
7.03266e-07
6.31002e-07
5.66833e-07
5.09795e-07
4.59043e-07
4.13839e-07
3.73533e-07
3.37555e-07
3.05404e-07
2.76642e-07
2.50881e-07
2.27781e-07
2.07043e-07
1.88403e-07
1.7163e-07
1.56518e-07
1.42887e-07
1.24613e-06
1.11209e-06
9.93573e-07
8.88685e-07
7.95779e-07
7.13413e-07
6.40322e-07
5.754e-07
5.17676e-07
4.66299e-07
4.20524e-07
3.79697e-07
3.43242e-07
3.10654e-07
2.81491e-07
2.55363e-07
2.31926e-07
2.10879e-07
1.91954e-07
1.74919e-07
1.59566e-07
1.45712e-07
1.26377e-06
1.12828e-06
1.00844e-06
9.02344e-07
8.08342e-07
7.24977e-07
6.50975e-07
5.8522e-07
5.26734e-07
4.7466e-07
4.28247e-07
3.86833e-07
3.49841e-07
3.1676e-07
2.87143e-07
2.60597e-07
2.36775e-07
2.15373e-07
1.96122e-07
1.78785e-07
1.63154e-07
1.49043e-07
1.28379e-06
1.14668e-06
1.02536e-06
9.17917e-07
8.22686e-07
7.38199e-07
6.6317e-07
5.96476e-07
5.37129e-07
4.84267e-07
4.37129e-07
3.95051e-07
3.57446e-07
3.23803e-07
2.93668e-07
2.66645e-07
2.42383e-07
2.20575e-07
2.0095e-07
1.83266e-07
1.67315e-07
1.52907e-07
1.30545e-06
1.16666e-06
1.04381e-06
9.34965e-07
8.38447e-07
7.52776e-07
6.7666e-07
6.08966e-07
5.48699e-07
4.94989e-07
4.4707e-07
4.04271e-07
3.66001e-07
3.31743e-07
3.0104e-07
2.73492e-07
2.48744e-07
2.26486e-07
2.06444e-07
1.88375e-07
1.72066e-07
1.57327e-07
1.32886e-06
1.18833e-06
1.06388e-06
9.53571e-07
8.55697e-07
7.68776e-07
6.91506e-07
6.22745e-07
5.61493e-07
5.06872e-07
4.58109e-07
4.1453e-07
3.75537e-07
3.40609e-07
3.09286e-07
2.81162e-07
2.5588e-07
2.33127e-07
2.12625e-07
1.94129e-07
1.77422e-07
1.62315e-07
1.35381e-06
1.21153e-06
1.08545e-06
9.73618e-07
8.74341e-07
7.86119e-07
7.07642e-07
6.37761e-07
5.75469e-07
5.19882e-07
4.70222e-07
4.25809e-07
3.86042e-07
3.50394e-07
3.184e-07
2.89653e-07
2.63792e-07
2.405e-07
2.19496e-07
2.00532e-07
1.83391e-07
1.67878e-07
1.35381e-06
1.21153e-06
1.08545e-06
9.73618e-07
8.74341e-07
7.86119e-07
7.07642e-07
6.37761e-07
5.75469e-07
5.19882e-07
4.70222e-07
4.25809e-07
3.86042e-07
3.50394e-07
3.184e-07
2.89653e-07
2.63792e-07
2.405e-07
2.19496e-07
2.00532e-07
1.83391e-07
1.67878e-07
1.32886e-06
1.18833e-06
1.06388e-06
9.53571e-07
8.55697e-07
7.68776e-07
6.91506e-07
6.22745e-07
5.61493e-07
5.06872e-07
4.58109e-07
4.1453e-07
3.75537e-07
3.40609e-07
3.09286e-07
2.81162e-07
2.5588e-07
2.33127e-07
2.12625e-07
1.94129e-07
1.77422e-07
1.62315e-07
1.30545e-06
1.16666e-06
1.04381e-06
9.34965e-07
8.38447e-07
7.52776e-07
6.7666e-07
6.08966e-07
5.48699e-07
4.94989e-07
4.4707e-07
4.04271e-07
3.66001e-07
3.31743e-07
3.0104e-07
2.73492e-07
2.48744e-07
2.26486e-07
2.06444e-07
1.88375e-07
1.72066e-07
1.57327e-07
1.28379e-06
1.14668e-06
1.02536e-06
9.17917e-07
8.22686e-07
7.38199e-07
6.6317e-07
5.96476e-07
5.37129e-07
4.84267e-07
4.37129e-07
3.95051e-07
3.57446e-07
3.23803e-07
2.93668e-07
2.66645e-07
2.42383e-07
2.20575e-07
2.0095e-07
1.83266e-07
1.67315e-07
1.52907e-07
1.26377e-06
1.12828e-06
1.00844e-06
9.02344e-07
8.08342e-07
7.24977e-07
6.50975e-07
5.8522e-07
5.26734e-07
4.7466e-07
4.28247e-07
3.86833e-07
3.49841e-07
3.1676e-07
2.87143e-07
2.60597e-07
2.36775e-07
2.15373e-07
1.96122e-07
1.78785e-07
1.63154e-07
1.49043e-07
1.24613e-06
1.11209e-06
9.93573e-07
8.88685e-07
7.95779e-07
7.13413e-07
6.40322e-07
5.754e-07
5.17676e-07
4.66299e-07
4.20524e-07
3.79697e-07
3.43242e-07
3.10654e-07
2.81491e-07
2.55363e-07
2.31926e-07
2.10879e-07
1.91954e-07
1.74919e-07
1.59566e-07
1.45712e-07
1.23039e-06
1.09771e-06
9.80406e-07
8.76624e-07
7.84721e-07
7.03266e-07
6.31002e-07
5.66833e-07
5.09795e-07
4.59043e-07
4.13839e-07
3.73533e-07
3.37555e-07
3.05404e-07
2.76642e-07
2.50881e-07
2.27781e-07
2.07043e-07
1.88403e-07
1.7163e-07
1.56518e-07
1.42887e-07
1.21672e-06
1.08524e-06
9.69035e-07
8.66236e-07
7.75222e-07
6.9457e-07
6.23036e-07
5.59527e-07
5.03089e-07
4.52883e-07
4.08175e-07
3.68321e-07
3.32756e-07
3.00982e-07
2.72564e-07
2.47117e-07
2.24306e-07
2.03833e-07
1.85436e-07
1.68885e-07
1.53978e-07
1.40535e-07
1.2051e-06
1.07468e-06
9.59419e-07
8.57474e-07
7.6723e-07
6.87273e-07
6.16366e-07
5.53425e-07
4.97501e-07
4.47761e-07
4.03476e-07
3.64006e-07
3.2879e-07
2.97334e-07
2.69206e-07
2.44024e-07
2.21455e-07
2.01202e-07
1.83008e-07
1.66643e-07
1.51906e-07
1.38619e-07
1.19547e-06
1.06595e-06
9.5149e-07
8.50268e-07
7.60674e-07
6.81302e-07
6.10921e-07
5.48455e-07
4.9296e-07
4.43607e-07
3.99673e-07
3.60522e-07
3.25594e-07
2.944e-07
2.6651e-07
2.41546e-07
2.19174e-07
1.99101e-07
1.81072e-07
1.64857e-07
1.50258e-07
1.37097e-07
1.18773e-06
1.05895e-06
9.45153e-07
8.44523e-07
7.5546e-07
6.76564e-07
6.06611e-07
5.4453e-07
4.89381e-07
4.40342e-07
3.9669e-07
3.57793e-07
3.23097e-07
2.92112e-07
2.64412e-07
2.39619e-07
2.17404e-07
1.97475e-07
1.79575e-07
1.63479e-07
1.48987e-07
1.35925e-07
1.18189e-06
1.05367e-06
9.40382e-07
8.40203e-07
7.51543e-07
6.73009e-07
6.03381e-07
5.41592e-07
4.86705e-07
4.37902e-07
3.94464e-07
3.55759e-07
3.21236e-07
2.90409e-07
2.62852e-07
2.38189e-07
2.16091e-07
1.96268e-07
1.78465e-07
1.62458e-07
1.48047e-07
1.35059e-07
1.1773e-06
1.04955e-06
9.36673e-07
8.36866e-07
7.48536e-07
6.70297e-07
6.00931e-07
5.39377e-07
4.847e-07
4.36085e-07
3.92814e-07
3.54261e-07
3.19874e-07
2.89169e-07
2.61721e-07
2.37157e-07
2.15148e-07
1.95406e-07
1.77677e-07
1.61735e-07
1.47385e-07
1.34451e-07
1.17455e-06
1.04707e-06
9.34445e-07
8.34854e-07
7.46718e-07
6.68652e-07
5.99441e-07
5.38025e-07
4.83472e-07
4.34969e-07
3.91799e-07
3.53336e-07
3.1903e-07
2.88398e-07
2.61017e-07
2.36512e-07
2.14558e-07
1.94865e-07
1.77181e-07
1.6128e-07
1.46966e-07
1.34066e-07
1.17426e-06
1.0468e-06
9.34189e-07
8.34614e-07
7.46493e-07
6.68441e-07
5.99244e-07
5.3784e-07
4.833e-07
4.34807e-07
3.91648e-07
3.53194e-07
3.18898e-07
2.88275e-07
2.60901e-07
2.36405e-07
2.14457e-07
1.94771e-07
1.77093e-07
1.61198e-07
1.46889e-07
1.33994e-07
1.17101e-06
1.17117e-06
1.17375e-06
1.17804e-06
1.18334e-06
1.1902e-06
1.19856e-06
1.20841e-06
1.21974e-06
1.23251e-06
1.24647e-06
1.26205e-06
1.27846e-06
1.29576e-06
1.31373e-06
1.24211e-06
1.219e-06
1.19702e-06
1.17632e-06
1.15702e-06
1.13892e-06
1.12285e-06
1.10819e-06
1.09515e-06
1.08375e-06
1.07394e-06
1.06569e-06
1.05893e-06
1.05365e-06
1.04938e-06
1.03798e-06
1.03812e-06
1.04041e-06
1.04421e-06
1.04894e-06
1.0551e-06
1.06262e-06
1.07153e-06
1.08183e-06
1.09349e-06
1.10633e-06
1.1207e-06
1.13596e-06
1.15217e-06
1.16913e-06
1.10801e-06
1.08689e-06
1.06684e-06
1.04801e-06
1.03048e-06
1.0141e-06
9.99562e-07
9.86338e-07
9.74604e-07
9.64351e-07
9.55553e-07
9.4816e-07
9.42106e-07
9.37384e-07
9.33577e-07
9.20948e-07
9.21071e-07
9.23102e-07
9.26476e-07
9.30705e-07
9.36227e-07
9.43006e-07
9.51076e-07
9.60449e-07
9.71113e-07
9.82925e-07
9.96201e-07
1.01039e-06
1.02556e-06
1.04155e-06
9.8953e-07
9.70187e-07
9.51882e-07
9.34725e-07
9.18798e-07
9.03951e-07
8.90785e-07
8.7884e-07
8.68262e-07
8.59035e-07
8.5113e-07
8.44498e-07
8.39074e-07
8.34843e-07
8.31442e-07
8.17913e-07
8.18022e-07
8.19828e-07
8.22825e-07
8.26613e-07
8.31575e-07
8.37694e-07
8.45011e-07
8.5355e-07
8.63312e-07
8.74187e-07
8.86454e-07
8.99654e-07
9.1385e-07
9.28916e-07
8.84742e-07
8.67017e-07
8.50283e-07
8.34634e-07
8.2014e-07
8.0667e-07
7.9473e-07
7.83927e-07
7.74378e-07
7.66064e-07
7.58953e-07
7.52996e-07
7.4813e-07
7.44335e-07
7.41294e-07
7.27142e-07
7.27239e-07
7.28847e-07
7.31514e-07
7.34911e-07
7.39376e-07
7.44905e-07
7.51548e-07
7.59336e-07
7.68282e-07
7.78302e-07
7.89642e-07
8.01923e-07
8.15205e-07
8.29388e-07
7.91985e-07
7.75725e-07
7.60411e-07
7.46122e-07
7.32915e-07
7.20679e-07
7.09838e-07
7.00055e-07
6.91424e-07
6.83923e-07
6.77518e-07
6.72161e-07
6.67791e-07
6.64382e-07
6.6166e-07
6.47117e-07
6.47205e-07
6.48639e-07
6.51016e-07
6.54066e-07
6.58089e-07
6.63092e-07
6.69131e-07
6.76241e-07
6.84445e-07
6.93684e-07
7.04173e-07
7.15601e-07
7.28025e-07
7.41366e-07
7.09799e-07
6.9487e-07
6.8084e-07
6.67777e-07
6.5573e-07
6.44601e-07
6.34746e-07
6.25875e-07
6.18064e-07
6.11288e-07
6.05512e-07
6.00688e-07
5.96758e-07
5.93692e-07
5.91254e-07
5.76515e-07
5.76595e-07
5.77875e-07
5.79996e-07
5.82739e-07
5.86368e-07
5.90902e-07
5.96396e-07
6.02895e-07
6.10426e-07
6.1895e-07
6.28656e-07
6.39292e-07
6.5091e-07
6.63451e-07
6.36909e-07
6.23188e-07
6.10322e-07
5.98368e-07
5.87366e-07
5.77232e-07
5.68262e-07
5.60209e-07
5.53131e-07
5.47002e-07
5.41786e-07
5.37437e-07
5.33898e-07
5.31138e-07
5.2895e-07
5.14176e-07
5.1425e-07
5.15395e-07
5.1729e-07
5.1976e-07
5.23038e-07
5.27151e-07
5.32157e-07
5.38102e-07
5.45022e-07
5.5289e-07
5.61877e-07
5.71775e-07
5.82639e-07
5.9442e-07
5.72199e-07
5.59577e-07
5.47767e-07
5.36816e-07
5.26758e-07
5.17519e-07
5.09345e-07
5.02024e-07
4.95602e-07
4.90051e-07
4.85336e-07
4.81409e-07
4.78219e-07
4.75731e-07
4.73766e-07
4.5909e-07
4.59158e-07
4.60184e-07
4.61879e-07
4.64107e-07
4.67072e-07
4.70807e-07
4.75373e-07
4.80817e-07
4.87179e-07
4.94448e-07
5.02771e-07
5.11985e-07
5.2214e-07
5.33202e-07
5.14691e-07
5.03071e-07
4.9222e-07
4.82178e-07
4.72972e-07
4.64539e-07
4.57082e-07
4.5042e-07
4.44586e-07
4.39552e-07
4.35283e-07
4.31734e-07
4.28854e-07
4.26609e-07
4.24843e-07
4.1037e-07
4.10434e-07
4.11355e-07
4.12873e-07
4.14885e-07
4.1757e-07
4.20967e-07
4.25135e-07
4.30126e-07
4.3598e-07
4.42698e-07
4.5041e-07
4.58988e-07
4.68479e-07
4.78859e-07
4.6353e-07
4.52823e-07
4.42844e-07
4.33627e-07
4.25192e-07
4.17487e-07
4.10676e-07
4.04606e-07
3.99299e-07
3.94729e-07
3.90859e-07
3.87647e-07
3.85045e-07
3.83016e-07
3.81426e-07
3.67245e-07
3.67304e-07
3.68132e-07
3.69494e-07
3.71314e-07
3.73748e-07
3.76841e-07
3.8065e-07
3.85228e-07
3.9062e-07
3.96831e-07
4.0398e-07
4.11967e-07
4.20835e-07
4.30571e-07
4.17966e-07
4.08092e-07
3.98908e-07
3.90439e-07
3.82703e-07
3.75655e-07
3.69428e-07
3.6389e-07
3.59058e-07
3.54903e-07
3.51391e-07
3.48481e-07
3.46126e-07
3.44291e-07
3.42858e-07
3.29036e-07
3.29092e-07
3.29837e-07
3.31061e-07
3.32708e-07
3.34919e-07
3.37737e-07
3.41222e-07
3.45426e-07
3.50394e-07
3.56141e-07
3.6277e-07
3.70206e-07
3.78491e-07
3.87619e-07
3.77341e-07
3.6823e-07
3.59769e-07
3.51982e-07
3.4488e-07
3.38426e-07
3.32726e-07
3.27669e-07
3.23263e-07
3.19482e-07
3.1629e-07
3.1365e-07
3.11516e-07
3.09854e-07
3.08561e-07
2.95151e-07
2.95204e-07
2.95876e-07
2.96978e-07
2.98471e-07
3.0048e-07
3.03051e-07
3.06243e-07
3.10106e-07
3.14687e-07
3.20006e-07
3.26155e-07
3.33079e-07
3.40819e-07
3.49373e-07
3.4108e-07
3.32666e-07
3.24866e-07
3.17698e-07
3.11173e-07
3.05257e-07
3.00034e-07
2.9541e-07
2.91389e-07
2.87943e-07
2.8504e-07
2.82641e-07
2.80706e-07
2.79199e-07
2.7803e-07
2.65073e-07
2.65123e-07
2.6573e-07
2.66722e-07
2.68078e-07
2.69906e-07
2.72254e-07
2.75179e-07
2.78733e-07
2.82959e-07
2.87885e-07
2.9359e-07
3.00038e-07
3.07267e-07
3.1528e-07
3.08675e-07
3.009e-07
2.93704e-07
2.87101e-07
2.811e-07
2.75672e-07
2.70881e-07
2.6665e-07
2.62975e-07
2.59832e-07
2.57187e-07
2.55006e-07
2.53248e-07
2.51879e-07
2.50822e-07
2.38346e-07
2.38394e-07
2.38943e-07
2.39838e-07
2.4107e-07
2.42735e-07
2.44883e-07
2.47566e-07
2.50836e-07
2.54738e-07
2.59301e-07
2.64596e-07
2.70601e-07
2.77352e-07
2.84856e-07
2.79684e-07
2.72495e-07
2.6585e-07
2.59764e-07
2.5424e-07
2.49255e-07
2.44856e-07
2.40979e-07
2.37618e-07
2.34747e-07
2.32335e-07
2.30349e-07
2.2875e-07
2.27506e-07
2.26549e-07
2.14573e-07
2.14619e-07
2.15116e-07
2.15925e-07
2.17045e-07
2.18565e-07
2.2053e-07
2.22993e-07
2.26005e-07
2.2961e-07
2.33838e-07
2.38754e-07
2.44347e-07
2.5065e-07
2.57675e-07
2.53715e-07
2.47063e-07
2.40925e-07
2.3531e-07
2.30221e-07
2.25638e-07
2.21596e-07