/*--------------------------------*- C++ -*----------------------------------*\
| =========                 |                                                 |
| \\      /  F ield         | foam-extend: Open Source CFD                    |
|  \\    /   O peration     | Version:     3.1                                |
|   \\  /    A nd           | Web:         http://www.extend-project.de       |
|    \\/     M anipulation  |                                                 |
\*---------------------------------------------------------------------------*/
FoamFile
{
    version     2.0;
    format      ascii;
    class       regIOobject;
    location    "0.005/uniform";
    object      profilingInfo;
}
// * * * * * * * * * * * * * * * * * * * * * * * * * * * * * * * * * * * * * //

profilingInfo
(

    {
        id              17;
        parentId        16;
        description     "Foam::Time::writeObject - outputTime";
        calls           1;
        totalTime       0.31345;
        childTime       0;
        onStack         1;
    }

    {
        id              16;
        parentId        1;
        description     "Foam::Time::writeObject";
        calls           1;
        totalTime       0.313578;
        childTime       0.31345;
        onStack         1;
    }

    {
        id              1;
        description     "application::main";
        calls           1;
        totalTime       48.0778;
        childTime       25.5421;
        onStack         1;
    }

    {
        id              3;
        parentId        2;
        description     "functionObjectList::read";
        calls           1;
        totalTime       1.7e-05;
        childTime       0;
        onStack         0;
    }

    {
        id              15;
        parentId        1;
        description     "functionObjects_.execute()";
        calls           4;
        totalTime       3.2e-05;
        childTime       0;
        onStack         0;
    }

    {
        id              2;
        parentId        1;
        description     "functionObjects_.start()";
        calls           1;
        totalTime       4.7e-05;
        childTime       1.7e-05;
        onStack         0;
    }

    {
        id              10;
        parentId        1;
        description     "fvMatrix::solve_DU";
        calls           16500;
        totalTime       12.16;
        childTime       10.8044;
        onStack         0;
    }

    {
        id              4;
        parentId        1;
        description     "fvMatrix::solve_U";
        calls           64;
        totalTime       0.568577;
        childTime       0.439473;
        onStack         0;
    }

    {
        id              7;
        parentId        1;
        description     "fvMatrix::solve_p";
        calls           256;
        totalTime       12.4999;
        childTime       12.4349;
        onStack         0;
    }

    {
        id              11;
        parentId        10;
        description     "lduMatrix::solver_DUx";
        calls           16500;
        totalTime       4.62344;
        childTime       0.563768;
        onStack         0;
    }

    {
        id              13;
        parentId        10;
        description     "lduMatrix::solver_DUy";
        calls           16500;
        totalTime       6.18098;
        childTime       0.77397;
        onStack         0;
    }

    {
        id              5;
        parentId        4;
        description     "lduMatrix::solver_Ux";
        calls           64;
        totalTime       0.222696;
        childTime       0;
        onStack         0;
    }

    {
        id              6;
        parentId        4;
        description     "lduMatrix::solver_Uy";
        calls           64;
        totalTime       0.216777;
        childTime       0;
        onStack         0;
    }

    {
        id              9;
        parentId        8;
        description     "lduMatrix::solver_coarsestLevelCorr";
        calls           3215;
        totalTime       0.139388;
        childTime       0;
        onStack         0;
    }

    {
        id              12;
        parentId        11;
        description     "lduMatrix::solver_coarsestLevelCorr";
        calls           49876;
        totalTime       0.563768;
        childTime       0;
        onStack         0;
    }

    {
        id              14;
        parentId        13;
        description     "lduMatrix::solver_coarsestLevelCorr";
        calls           74424;
        totalTime       0.77397;
        childTime       0;
        onStack         0;
    }

    {
        id              8;
        parentId        7;
        description     "lduMatrix::solver_p";
        calls           256;
        totalTime       12.4349;
        childTime       0.139388;
        onStack         0;
    }
);


// ************************************************************************* //
