/*--------------------------------*- C++ -*----------------------------------*\
| =========                 |                                                 |
| \\      /  F ield         | foam-extend: Open Source CFD                    |
|  \\    /   O peration     | Version:     3.2                                |
|   \\  /    A nd           | Web:         http://www.foam-extend.org         |
|    \\/     M anipulation  | For copyright notice see file Copyright         |
\*---------------------------------------------------------------------------*/
FoamFile
{
    version     2.0;
    format      ascii;
    class       volVectorField;
    location    "0.02";
    object      DU_0;
}
// * * * * * * * * * * * * * * * * * * * * * * * * * * * * * * * * * * * * * //

dimensions      [0 1 0 0 0 0 0];

internalField   uniform (0 0 0);

boundaryField
{
    left
    {
        type            fixedValue;
        value           uniform (0 0 0);
    }
    right
    {
        type            solidTraction;
        nonLinear       updatedLagrangian;
        traction        uniform (0 0 0);
        pressure        uniform 0;
        value           uniform (0 0 0);
    }
    bottom
    {
        type            solidTraction;
        nonLinear       updatedLagrangian;
        traction        uniform (0 0 0);
        pressure        uniform 0;
        value           uniform (0 0 0);
    }
    fsiFace
    {
        type            solidTraction;
        nonLinear       updatedLagrangian;
        traction        uniform (0 0 0);
        pressure        uniform 0;
        value           uniform (0 0 0);
    }
    front
    {
        type            empty;
    }
    back
    {
        type            empty;
    }
}


// ************************************************************************* //
