/*--------------------------------*- C++ -*----------------------------------*\
| =========                 |                                                 |
| \\      /  F ield         | foam-extend: Open Source CFD                    |
|  \\    /   O peration     | Version:     3.2                                |
|   \\  /    A nd           | Web:         http://www.foam-extend.org         |
|    \\/     M anipulation  | For copyright notice see file Copyright         |
\*---------------------------------------------------------------------------*/
FoamFile
{
    version     2.0;
    format      ascii;
    class       volSymmTensorField;
    location    "0.02";
    object      sigma;
}
// * * * * * * * * * * * * * * * * * * * * * * * * * * * * * * * * * * * * * //

dimensions      [1 -1 -2 0 0 0 0];

internalField   uniform (0 0 0 0 0 0);

boundaryField
{
    left
    {
        type            calculated;
        value           uniform (0 0 0 0 0 0);
    }
    right
    {
        type            calculated;
        value           uniform (0 0 0 0 0 0);
    }
    bottom
    {
        type            calculated;
        value           uniform (0 0 0 0 0 0);
    }
    fsiFace
    {
        type            calculated;
        value           uniform (0 0 0 0 0 0);
    }
    front
    {
        type            empty;
    }
    back
    {
        type            empty;
    }
}


// ************************************************************************* //
