/*--------------------------------*- C++ -*----------------------------------*\
| =========                 |                                                 |
| \\      /  F ield         | foam-extend: Open Source CFD                    |
|  \\    /   O peration     | Version:     3.2                                |
|   \\  /    A nd           | Web:         http://www.foam-extend.org         |
|    \\/     M anipulation  | For copyright notice see file Copyright         |
\*---------------------------------------------------------------------------*/
FoamFile
{
    version     2.0;
    format      ascii;
    class       vectorField;
    location    "0.02";
    object      accumulatedFluidInterfaceDisplacement;
}
// * * * * * * * * * * * * * * * * * * * * * * * * * * * * * * * * * * * * * //


102
(
(1.5338e-206 -2.72799e-05 -2.13085e-06)
(1.01973e-206 -2.63949e-05 -2.13101e-06)
(-1.88888e-204 -2.55096e-05 -2.13107e-06)
(1.10124e-203 -2.46241e-05 -2.13083e-06)
(1.05105e-206 -2.37385e-05 -2.13014e-06)
(-1.52047e-203 -2.2853e-05 -2.12886e-06)
(4.60068e-204 -2.19677e-05 -2.12683e-06)
(1.86159e-205 -2.10831e-05 -2.12391e-06)
(1.25059e-206 -2.01995e-05 -2.11993e-06)
(2.03978e-205 -1.93172e-05 -2.1147e-06)
(1.08456e-206 -1.84369e-05 -2.10798e-06)
(1.08708e-206 -1.7559e-05 -2.09954e-06)
(-2.52613e-204 -1.66843e-05 -2.08907e-06)
(1.50878e-202 -1.58135e-05 -2.07625e-06)
(1.0042e-206 -1.49476e-05 -2.06071e-06)
(1.07831e-206 -1.40878e-05 -2.04204e-06)
(1.18548e-206 -1.32354e-05 -2.01983e-06)
(4.95978e-205 -1.23918e-05 -1.99363e-06)
(-4.64413e-205 -1.15588e-05 -1.96301e-06)
(5.0726e-204 -1.07384e-05 -1.92754e-06)
(1.48144e-206 -9.93274e-06 -1.88683e-06)
(1.07994e-206 -9.14418e-06 -1.84054e-06)
(1.08452e-206 -8.37531e-06 -1.78842e-06)
(1.08434e-206 -7.62881e-06 -1.73032e-06)
(-1.73803e-202 -6.9075e-06 -1.66624e-06)
(1.11266e-206 -6.21417e-06 -1.59634e-06)
(8.3921e-207 -5.55153e-06 -1.52094e-06)
(-5.15788e-204 -4.92208e-06 -1.44053e-06)
(6.48962e-204 -4.32808e-06 -1.35578e-06)
(1.09683e-206 -3.77137e-06 -1.26743e-06)
(2.14331e-204 -3.25344e-06 -1.17636e-06)
(-1.35797e-205 -2.77531e-06 -1.08346e-06)
(-1.87563e-206 -2.3376e-06 -9.89652e-07)
(1.08456e-206 -1.94051e-06 -8.95855e-07)
(1.08874e-206 -1.58385e-06 -8.02975e-07)
(-3.78278e-205 -1.26705e-06 -7.11889e-07)
(-3.7626e-206 -9.89196e-07 -6.23446e-07)
(8.71761e-206 -7.48986e-07 -5.38455e-07)
(-5.24881e-206 -5.44799e-07 -4.57669e-07)
(1.29171e-205 -3.74696e-07 -3.81779e-07)
(-3.09009e-205 -2.36466e-07 -3.114e-07)
(2.48125e-206 -1.27669e-07 -2.47075e-07)
(1.05555e-206 -4.56787e-08 -1.89279e-07)
(1.59362e-205 1.22967e-08 -1.38424e-07)
(1.09995e-206 4.92045e-08 -9.48657e-08)
(-5.44501e-204 6.8132e-08 -5.88919e-08)
(1.08456e-206 7.22638e-08 -3.07205e-08)
(2.5145e-205 6.4801e-08 -1.05106e-08)
(1.09811e-206 4.88173e-08 1.5828e-09)
(1.0753e-206 2.71812e-08 5.16321e-09)
(1.5338e-206 0 0)
(1.5338e-206 -2.72799e-05 -2.13085e-06)
(4.56161e-204 -2.63949e-05 -2.13101e-06)
(2.6863e-204 -2.55096e-05 -2.13107e-06)
(1.10759e-203 -2.46241e-05 -2.13083e-06)
(1.04051e-206 -2.37385e-05 -2.13014e-06)
(9.20987e-203 -2.2853e-05 -2.12886e-06)
(3.41568e-209 -2.19677e-05 -2.12683e-06)
(1.19549e-206 -2.10831e-05 -2.12391e-06)
(1.07556e-206 -2.01995e-05 -2.11993e-06)
(1.08452e-206 -1.93172e-05 -2.1147e-06)
(9.18784e-207 -1.84369e-05 -2.10798e-06)
(1.08456e-206 -1.7559e-05 -2.09954e-06)
(-2.38363e-204 -1.66843e-05 -2.08907e-06)
(-3.54523e-204 -1.58135e-05 -2.07625e-06)
(1.08456e-206 -1.49476e-05 -2.06071e-06)
(9.4587e-206 -1.40878e-05 -2.04204e-06)
(1.16991e-206 -1.32354e-05 -2.01983e-06)
(1.91616e-205 -1.23918e-05 -1.99363e-06)
(1.21704e-206 -1.15588e-05 -1.96301e-06)
(9.94566e-207 -1.07384e-05 -1.92754e-06)
(8.36624e-203 -9.93274e-06 -1.88683e-06)
(1.07064e-206 -9.14418e-06 -1.84054e-06)
(1.08456e-206 -8.37531e-06 -1.78842e-06)
(1.08452e-206 -7.62881e-06 -1.73032e-06)
(1.08459e-206 -6.9075e-06 -1.66624e-06)
(-7.93459e-204 -6.21417e-06 -1.59634e-06)
(1.13817e-206 -5.55153e-06 -1.52094e-06)
(2.19229e-206 -4.92208e-06 -1.44053e-06)
(1.08453e-206 -4.32808e-06 -1.35578e-06)
(1.00529e-206 -3.77137e-06 -1.26743e-06)
(1.08452e-206 -3.25344e-06 -1.17636e-06)
(1.08456e-206 -2.77531e-06 -1.08346e-06)
(-6.62595e-205 -2.3376e-06 -9.89652e-07)
(1.08456e-206 -1.94051e-06 -8.95855e-07)
(1.08267e-206 -1.58385e-06 -8.02975e-07)
(1.06827e-206 -1.26705e-06 -7.11889e-07)
(1.84751e-206 -9.89196e-07 -6.23446e-07)
(-2.30976e-205 -7.48986e-07 -5.38455e-07)
(5.60962e-206 -5.44799e-07 -4.57669e-07)
(1.08002e-206 -3.74696e-07 -3.81779e-07)
(1.07757e-206 -2.36466e-07 -3.114e-07)
(1.08453e-206 -1.27669e-07 -2.47075e-07)
(1.12509e-206 -4.56787e-08 -1.89279e-07)
(1.54601e-206 1.22967e-08 -1.38424e-07)
(1.10029e-206 4.92045e-08 -9.48657e-08)
(1.05792e-205 6.8132e-08 -5.88919e-08)
(1.94547e-206 7.22638e-08 -3.07205e-08)
(-6.83673e-204 6.4801e-08 -1.05106e-08)
(1.08456e-206 4.88173e-08 1.5828e-09)
(1.08456e-206 2.71812e-08 5.16321e-09)
(1.5338e-206 0 0)
)


// ************************************************************************* //
