/*--------------------------------*- C++ -*----------------------------------*\
| =========                 |                                                 |
| \\      /  F ield         | foam-extend: Open Source CFD                    |
|  \\    /   O peration     | Version:     3.2                                |
|   \\  /    A nd           | Web:         http://www.foam-extend.org         |
|    \\/     M anipulation  | For copyright notice see file Copyright         |
\*---------------------------------------------------------------------------*/
FoamFile
{
    version     2.0;
    format      ascii;
    class       tetPointVectorField;
    location    "0.02";
    object      motionU;
}
// * * * * * * * * * * * * * * * * * * * * * * * * * * * * * * * * * * * * * //

dimensions      [0 1 -1 0 0 0 0];

internalField   nonuniform List<vector> 
17802
(
(-7.08572e-173 -0.0945322 -0.00767511)
(-4.68915e-173 -0.091464 -0.00767461)
(8.72613e-171 -0.0883928 -0.00767242)
(-5.11677e-170 -0.0853197 -0.00766665)
(-4.85533e-173 -0.082247 -0.00765593)
(7.02414e-170 -0.0791773 -0.00763918)
(-2.12539e-170 -0.0761138 -0.00761553)
(-8.60024e-172 -0.0730597 -0.00758433)
(-5.75708e-173 -0.0700184 -0.00754503)
(-9.44757e-172 -0.0669935 -0.00749722)
(-5.01036e-173 -0.0639884 -0.00744052)
(-5.022e-173 -0.061007 -0.00737462)
(1.167e-170 -0.058053 -0.00729918)
(-6.97015e-169 -0.0551303 -0.00721391)
(-4.62567e-173 -0.0522431 -0.0071185)
(-4.99588e-173 -0.0493955 -0.00701269)
(-5.47658e-173 -0.0465918 -0.00689624)
(-2.29128e-171 -0.0438366 -0.00676898)
(2.14546e-171 -0.0411344 -0.00663081)
(-2.3434e-170 -0.0384898 -0.00648174)
(-6.84386e-173 -0.0359074 -0.00632187)
(-5.01036e-173 -0.0333917 -0.0061514)
(-5.01017e-173 -0.0309471 -0.00597063)
(-5.00935e-173 -0.0285778 -0.00577996)
(8.02917e-169 -0.0262878 -0.00557983)
(-5.14016e-173 -0.024081 -0.00537075)
(-3.87692e-173 -0.021961 -0.00515326)
(2.3828e-170 -0.0199311 -0.00492798)
(-2.99815e-170 -0.0179945 -0.00469555)
(-5.06731e-173 -0.0161541 -0.00445671)
(-9.90208e-171 -0.0144126 -0.00421231)
(6.27344e-172 -0.0127724 -0.00396329)
(8.66489e-173 -0.0112352 -0.00371071)
(-5.01036e-173 -0.00980251 -0.00345575)
(-5.02968e-173 -0.0084752 -0.00319965)
(1.74754e-171 -0.00725355 -0.00294374)
(1.73822e-172 -0.00613727 -0.00268936)
(-4.0273e-172 -0.00512546 -0.0024379)
(2.42481e-172 -0.00421664 -0.00219073)
(-5.96735e-172 -0.00340873 -0.00194919)
(1.43491e-171 -0.00269906 -0.00171462)
(-1.14627e-172 -0.0020844 -0.0014883)
(-4.87637e-173 -0.00156094 -0.0012714)
(-7.36209e-172 -0.00112433 -0.00106502)
(-5.08146e-173 -0.000769802 -0.000870078)
(2.51565e-170 -0.000492214 -0.000687389)
(-5.01036e-173 -0.000286157 -0.000517632)
(-1.15734e-171 -0.000146016 -0.000361441)
(-5.05903e-173 -6.592e-05 -0.000219557)
(-4.96758e-173 -3.77477e-05 -9.36424e-05)
(-7.08572e-173 0 0)
(0 0 0)
(0 -0.0455057 -0.00392721)
(0 -0.0625389 -0.00554128)
(0 -0.0677594 -0.00619332)
(0 -0.0690894 -0.00652515)
(0 -0.0687397 -0.00671501)
(0 -0.0675292 -0.00682834)
(0 -0.065826 -0.00689408)
(0 -0.0638194 -0.00692678)
(0 -0.0616173 -0.00693447)
(0 -0.0592864 -0.00692188)
(0 -0.0568707 -0.00689194)
(0 -0.0544008 -0.00684651)
(0 -0.0518992 -0.00678682)
(0 -0.0493832 -0.00671369)
(0 -0.0468666 -0.00662768)
(0 -0.0443609 -0.00652921)
(0 -0.041876 -0.00641858)
(0 -0.0394205 -0.0062961)
(0 -0.0370021 -0.00616205)
(0 -0.0346279 -0.00601678)
(0 -0.0323042 -0.00586064)
(0 -0.030037 -0.00569406)
(0 -0.0278318 -0.00551751)
(0 -0.0256934 -0.00533152)
(0 -0.0236266 -0.00513663)
(0 -0.0216355 -0.00493344)
(0 -0.0197241 -0.0047226)
(0 -0.0178959 -0.0045048)
(0 -0.0161542 -0.00428079)
(0 -0.0145016 -0.00405141)
(0 -0.0129407 -0.00381759)
(0 -0.0114735 -0.00358033)
(0 -0.0101013 -0.00334072)
(0 -0.00882533 -0.0030999)
(0 -0.00764583 -0.00285908)
(0 -0.00656266 -0.00261948)
(0 -0.00557508 -0.00238235)
(0 -0.00468176 -0.00214891)
(0 -0.0038808 -0.00192037)
(0 -0.00316968 -0.00169791)
(0 -0.00254535 -0.00148264)
(0 -0.00200417 -0.00127557)
(0 -0.00154199 -0.00107763)
(0 -0.00115409 -0.000889605)
(0 -0.000835245 -0.000712145)
(0 -0.000579568 -0.000545776)
(0 -0.000380196 -0.000390934)
(0 -0.000228195 -0.00024809)
(0 -0.000108848 -0.000118103)
(0 0 0)
(0 0 0)
(0 -0.0271011 -0.0024181)
(0 -0.0441309 -0.0040172)
(0 -0.0529376 -0.00494607)
(0 -0.0571799 -0.00550047)
(0 -0.05896 -0.00584995)
(0 -0.0593274 -0.00607871)
(0 -0.0588301 -0.00623033)
(0 -0.0577743 -0.00632883)
(0 -0.0563427 -0.00638835)
(0 -0.0546512 -0.00641757)
(0 -0.0527767 -0.00642212)
(0 -0.0507727 -0.00640575)
(0 -0.0486782 -0.00637101)
(0 -0.0465221 -0.00631973)
(0 -0.0443271 -0.00625322)
(0 -0.0421113 -0.00617246)
(0 -0.0398895 -0.00607824)
(0 -0.0376742 -0.00597121)
(0 -0.0354762 -0.00585192)
(0 -0.0333047 -0.00572094)
(0 -0.0311682 -0.00557878)
(0 -0.0290739 -0.00542599)
(0 -0.0270284 -0.00526314)
(0 -0.0250378 -0.00509081)
(0 -0.0231074 -0.00490961)
(0 -0.021242 -0.00472018)
(0 -0.0194461 -0.0045232)
(0 -0.0177236 -0.00431937)
(0 -0.0160779 -0.00410948)
(0 -0.0145122 -0.00389435)
(0 -0.013029 -0.00367487)
(0 -0.0116304 -0.003452)
(0 -0.010318 -0.00322675)
(0 -0.00909296 -0.00300019)
(0 -0.00795573 -0.00277341)
(0 -0.00690631 -0.00254753)
(0 -0.00594409 -0.00232366)
(0 -0.0050679 -0.00210292)
(0 -0.00427598 -0.00188638)
(0 -0.00356601 -0.00167506)
(0 -0.0029351 -0.00146995)
(0 -0.00237976 -0.00127193)
(0 -0.00189599 -0.00108175)
(0 -0.00147918 -0.000900072)
(0 -0.00112404 -0.000727387)
(0 -0.000824421 -0.00056403)
(0 -0.000572958 -0.000410151)
(0 -0.000360276 -0.000265656)
(0 -0.000174014 -0.000129838)
(0 0 0)
(0 0 0)
(0 -0.0183153 -0.00169105)
(0 -0.0323946 -0.00303703)
(0 -0.0416136 -0.00398602)
(0 -0.0471639 -0.00463367)
(0 -0.0502777 -0.00507896)
(0 -0.0518034 -0.00538982)
(0 -0.0522749 -0.00560872)
(0 -0.0520269 -0.00576204)
(0 -0.0512748 -0.00586653)
(0 -0.0501617 -0.00593314)
(0 -0.0487858 -0.00596923)
(0 -0.0472169 -0.00597986)
(0 -0.045506 -0.00596863)
(0 -0.0436917 -0.00593814)
(0 -0.0418038 -0.00589034)
(0 -0.0398659 -0.00582668)
(0 -0.0378971 -0.00574835)
(0 -0.0359134 -0.0056563)
(0 -0.0339281 -0.00555134)
(0 -0.0319527 -0.00543421)
(0 -0.0299973 -0.00530558)
(0 -0.0280705 -0.00516613)
(0 -0.02618 -0.0050165)
(0 -0.0243327 -0.00485733)
(0 -0.0225347 -0.0046893)
(0 -0.0207915 -0.00451307)
(0 -0.0191079 -0.00432936)
(0 -0.0174883 -0.0041389)
(0 -0.0159363 -0.00394245)
(0 -0.0144553 -0.00374083)
(0 -0.013048 -0.00353491)
(0 -0.0117168 -0.00332559)
(0 -0.0104633 -0.00311384)
(0 -0.00928877 -0.00290063)
(0 -0.00819387 -0.00268698)
(0 -0.00717869 -0.0024739)
(0 -0.00624279 -0.0022624)
(0 -0.00538516 -0.00205347)
(0 -0.0046042 -0.00184807)
(0 -0.00389774 -0.00164712)
(0 -0.00326305 -0.00145145)
(0 -0.00269685 -0.00126183)
(0 -0.00219528 -0.0010789)
(0 -0.00175385 -0.000903159)
(0 -0.00136738 -0.000734974)
(0 -0.00102974 -0.000574501)
(0 -0.000733663 -0.000421641)
(0 -0.000470414 -0.000275918)
(0 -0.000229626 -0.000136162)
(0 0 0)
(0 0 0)
(0 -0.0134229 -0.00128108)
(0 -0.0247736 -0.00239285)
(0 -0.0332473 -0.00326892)
(0 -0.0390786 -0.00392728)
(0 -0.0428504 -0.00441431)
(0 -0.0451142 -0.00477386)
(0 -0.046291 -0.00503929)
(0 -0.0466811 -0.00523422)
(0 -0.0464952 -0.00537505)
(0 -0.0458824 -0.00547322)
(0 -0.0449495 -0.0055368)
(0 -0.0437748 -0.00557157)
(0 -0.0424169 -0.00558177)
(0 -0.0409206 -0.00557054)
(0 -0.0393208 -0.00554026)
(0 -0.0376453 -0.00549278)
(0 -0.0359168 -0.00542957)
(0 -0.0341538 -0.00535184)
(0 -0.032372 -0.00526062)
(0 -0.0305847 -0.00515679)
(0 -0.0288033 -0.00504117)
(0 -0.0270377 -0.00491453)
(0 -0.0252967 -0.00477759)
(0 -0.0235878 -0.00463106)
(0 -0.0219179 -0.00447564)
(0 -0.0202929 -0.00431206)
(0 -0.0187181 -0.00414103)
(0 -0.0171982 -0.00396329)
(0 -0.0157372 -0.00377962)
(0 -0.0143387 -0.00359082)
(0 -0.0130056 -0.00339773)
(0 -0.0117403 -0.0032012)
(0 -0.0105447 -0.00300214)
(0 -0.00942018 -0.00280147)
(0 -0.00836751 -0.00260012)
(0 -0.00738694 -0.00239902)
(0 -0.00647818 -0.00219907)
(0 -0.00564037 -0.00200117)
(0 -0.00487207 -0.00180618)
(0 -0.0041713 -0.0016149)
(0 -0.00353549 -0.00142807)
(0 -0.00296155 -0.00124633)
(0 -0.0024458 -0.00107021)
(0 -0.00198398 -0.000900128)
(0 -0.00157107 -0.000736305)
(0 -0.00120121 -0.000578772)
(0 -0.000867569 -0.000427282)
(0 -0.000562206 -0.000281214)
(0 -0.000276212 -0.000139404)
(0 0 0)
(0 0 0)
(0 -0.0103698 -0.00102133)
(0 -0.0195982 -0.00194903)
(0 -0.0270536 -0.00273083)
(0 -0.0326556 -0.00335927)
(0 -0.0366308 -0.00385184)
(0 -0.0392932 -0.0042332)
(0 -0.0409354 -0.00452631)
(0 -0.0417955 -0.00474978)
(0 -0.0420573 -0.00491784)
(0 -0.0418595 -0.00504113)
(0 -0.041307 -0.00512758)
(0 -0.0404797 -0.00518312)
(0 -0.0394388 -0.00521224)
(0 -0.0382323 -0.00521834)
(0 -0.0368982 -0.0052041)
(0 -0.0354671 -0.00517161)
(0 -0.0339638 -0.00512255)
(0 -0.0324089 -0.00505832)
(0 -0.0308199 -0.00498011)
(0 -0.0292114 -0.00488893)
(0 -0.0275961 -0.0047857)
(0 -0.0259847 -0.00467128)
(0 -0.024387 -0.00454645)
(0 -0.0228111 -0.00441198)
(0 -0.0212644 -0.0042686)
(0 -0.0197533 -0.00411707)
(0 -0.0182836 -0.00395811)
(0 -0.0168602 -0.00379248)
(0 -0.0154874 -0.00362095)
(0 -0.014169 -0.00344429)
(0 -0.012908 -0.00326331)
(0 -0.0117072 -0.00307884)
(0 -0.0105684 -0.00289174)
(0 -0.00949325 -0.00270285)
(0 -0.00848263 -0.00251305)
(0 -0.00753693 -0.00232317)
(0 -0.00665601 -0.00213405)
(0 -0.00583918 -0.00194648)
(0 -0.00508515 -0.00176124)
(0 -0.0043921 -0.00157903)
(0 -0.00375768 -0.00140051)
(0 -0.00317899 -0.00122622)
(0 -0.00265257 -0.00105661)
(0 -0.00217441 -0.000891978)
(0 -0.00173981 -0.000732492)
(0 -0.00134324 -0.000578089)
(0 -0.00097841 -0.000428459)
(0 -0.000638217 -0.000282977)
(0 -0.000314844 -0.000140633)
(0 0 0)
(0 0 0)
(0 -0.00830471 -0.000842607)
(0 -0.0159217 -0.00162847)
(0 -0.0223935 -0.00231959)
(0 -0.0275589 -0.00290199)
(0 -0.0314722 -0.00337926)
(0 -0.0342931 -0.00376356)
(0 -0.0362079 -0.00406929)
(0 -0.0373904 -0.00430986)
(0 -0.0379883 -0.00449661)
(0 -0.0381215 -0.00463868)
(0 -0.0378855 -0.00474325)
(0 -0.0373562 -0.00481597)
(0 -0.0365939 -0.00486125)
(0 -0.0356468 -0.00488257)
(0 -0.0345539 -0.00488268)
(0 -0.033347 -0.00486382)
(0 -0.0320522 -0.00482779)
(0 -0.0306916 -0.00477612)
(0 -0.0292835 -0.00471009)
(0 -0.0278437 -0.00463082)
(0 -0.0263856 -0.0045393)
(0 -0.0249208 -0.00443646)
(0 -0.0234596 -0.00432313)
(0 -0.0220107 -0.00420011)
(0 -0.020582 -0.00406818)
(0 -0.0191804 -0.0039281)
(0 -0.0178117 -0.00378061)
(0 -0.0164813 -0.00362647)
(0 -0.0151937 -0.00346643)
(0 -0.0139528 -0.00330126)
(0 -0.0127619 -0.00313174)
(0 -0.0116239 -0.00295865)
(0 -0.0105408 -0.00278281)
(0 -0.00951421 -0.00260502)
(0 -0.00854531 -0.00242606)
(0 -0.00763461 -0.00224673)
(0 -0.0067821 -0.00206778)
(0 -0.00598723 -0.00188992)
(0 -0.0052489 -0.00171384)
(0 -0.00456546 -0.00154019)
(0 -0.00393474 -0.00136953)
(0 -0.00335408 -0.00120233)
(0 -0.00282029 -0.00103896)
(0 -0.00232962 -0.00087967)
(0 -0.00187772 -0.000724554)
(0 -0.00145951 -0.000573516)
(0 -0.00106923 -0.000426242)
(0 -0.000700529 -0.000282167)
(0 -0.000346539 -0.000140452)
(0 0 0)
(0 0 0)
(0 -0.00682513 -0.000712129)
(0 -0.0132066 -0.00138743)
(0 -0.0188153 -0.00199836)
(0 -0.0234873 -0.00253079)
(0 -0.0272012 -0.00298222)
(0 -0.0300257 -0.0033575)
(0 -0.0320709 -0.00366486)
(0 -0.0334561 -0.00391334)
(0 -0.0342934 -0.00411142)
(0 -0.0346805 -0.00426645)
(0 -0.0347 -0.00438462)
(0 -0.0344203 -0.00447097)
(0 -0.0338977 -0.00452963)
(0 -0.0331786 -0.00456393)
(0 -0.0323013 -0.00457661)
(0 -0.0312975 -0.00456991)
(0 -0.0301937 -0.00454569)
(0 -0.0290124 -0.00450553)
(0 -0.0277726 -0.00445078)
(0 -0.0264905 -0.00438261)
(0 -0.0251803 -0.00430208)
(0 -0.0238539 -0.00421013)
(0 -0.022522 -0.00410765)
(0 -0.0211939 -0.00399547)
(0 -0.0198777 -0.00387437)
(0 -0.0185806 -0.00374514)
(0 -0.0173087 -0.00360851)
(0 -0.0160676 -0.00346525)
(0 -0.014862 -0.00331608)
(0 -0.013696 -0.00316177)
(0 -0.0125731 -0.00300306)
(0 -0.0114961 -0.00284071)
(0 -0.0104673 -0.00267548)
(0 -0.00948852 -0.00250813)
(0 -0.00856094 -0.00233939)
(0 -0.00768523 -0.00216999)
(0 -0.00686156 -0.0020006)
(0 -0.00608953 -0.00183189)
(0 -0.00536818 -0.00166447)
(0 -0.00469606 -0.00149892)
(0 -0.0040712 -0.00133573)
(0 -0.00349117 -0.00117532)
(0 -0.00295305 -0.00101799)
(0 -0.00245346 -0.000863962)
(0 -0.00198835 -0.000713289)
(0 -0.00155309 -0.000565864)
(0 -0.00114249 -0.000421398)
(0 -0.000750871 -0.000279412)
(0 -0.000372162 -0.00013923)
(0 0 0)
(0 0 0)
(0 -0.00571886 -0.000612669)
(0 -0.0111361 -0.00120008)
(0 -0.0160117 -0.00174201)
(0 -0.0202015 -0.00222601)
(0 -0.0236549 -0.00264725)
(0 -0.0263904 -0.00300654)
(0 -0.0284676 -0.00330808)
(0 -0.0299643 -0.00355756)
(0 -0.0309615 -0.00376098)
(0 -0.0315358 -0.003924)
(0 -0.0317555 -0.00405167)
(0 -0.0316799 -0.00414834)
(0 -0.0313598 -0.00421767)
(0 -0.0308378 -0.00426277)
(0 -0.0301505 -0.0042862)
(0 -0.0293284 -0.00429017)
(0 -0.0283975 -0.00427649)
(0 -0.0273802 -0.00424676)
(0 -0.0262956 -0.00420234)
(0 -0.02516 -0.00414442)
(0 -0.0239877 -0.0040741)
(0 -0.0227912 -0.00399234)
(0 -0.0215812 -0.00390003)
(0 -0.0203673 -0.00379804)
(0 -0.0191579 -0.00368716)
(0 -0.0179602 -0.00356815)
(0 -0.0167808 -0.00344178)
(0 -0.0156251 -0.00330879)
(0 -0.0144983 -0.0031699)
(0 -0.0134044 -0.00302583)
(0 -0.012347 -0.00287733)
(0 -0.0113292 -0.0027251)
(0 -0.0103534 -0.00256988)
(0 -0.0094214 -0.00241237)
(0 -0.00853461 -0.00225326)
(0 -0.00769381 -0.00209322)
(0 -0.00689929 -0.00193286)
(0 -0.00615081 -0.00177278)
(0 -0.00544759 -0.00161356)
(0 -0.00478833 -0.0014557)
(0 -0.00417128 -0.00129966)
(0 -0.00359428 -0.00114578)
(0 -0.00305469 -0.000994338)
(0 -0.00254941 -0.000845519)
(0 -0.00207481 -0.000699369)
(0 -0.00162668 -0.000555786)
(0 -0.00120032 -0.000414522)
(0 -0.000790713 -0.000275183)
(0 -0.000392475 -0.000137229)
(0 0 0)
(0 0 0)
(0 -0.00486461 -0.000534259)
(0 -0.00951541 -0.00105046)
(0 -0.013774 -0.00153342)
(0 -0.01752 -0.00197268)
(0 -0.0206946 -0.0023628)
(0 -0.0232905 -0.00270254)
(0 -0.0253352 -0.00299352)
(0 -0.0268767 -0.00323906)
(0 -0.0279715 -0.00344319)
(0 -0.0286775 -0.00361011)
(0 -0.0290494 -0.00374378)
(0 -0.0291371 -0.00384778)
(0 -0.0289846 -0.00392531)
(0 -0.0286306 -0.0039791)
(0 -0.0281084 -0.00401154)
(0 -0.0274469 -0.00402468)
(0 -0.0266711 -0.00402027)
(0 -0.0258024 -0.00399986)
(0 -0.0248596 -0.0039648)
(0 -0.023859 -0.00391628)
(0 -0.0228148 -0.00385538)
(0 -0.0217393 -0.00378307)
(0 -0.0206436 -0.00370027)
(0 -0.0195372 -0.00360782)
(0 -0.0184286 -0.00350652)
(0 -0.0173252 -0.00339714)
(0 -0.0162336 -0.00328043)
(0 -0.0151595 -0.00315712)
(0 -0.0141079 -0.00302791)
(0 -0.0130832 -0.00289351)
(0 -0.0120891 -0.00275463)
(0 -0.0111285 -0.00261196)
(0 -0.0102042 -0.00246617)
(0 -0.00931792 -0.00231795)
(0 -0.00847125 -0.00216792)
(0 -0.00766512 -0.00201671)
(0 -0.00689995 -0.00186488)
(0 -0.00617559 -0.00171299)
(0 -0.00549144 -0.00156155)
(0 -0.00484641 -0.00141103)
(0 -0.00423895 -0.00126182)
(0 -0.00366712 -0.00111425)
(0 -0.00312861 -0.000968567)
(0 -0.00262064 -0.000824924)
(0 -0.00213989 -0.000683369)
(0 -0.0016826 -0.00054382)
(0 -0.00124457 -0.000406076)
(0 -0.000821317 -0.000269823)
(0 -0.000408114 -0.000134635)
(0 0 0)
(0 0 0)
(0 -0.00418786 -0.000470844)
(0 -0.008219 -0.000928329)
(0 -0.0119582 -0.00136081)
(0 -0.0153067 -0.00175962)
(0 -0.018207 -0.00211951)
(0 -0.0206391 -0.00243822)
(0 -0.0226112 -0.00271587)
(0 -0.0241509 -0.00295413)
(0 -0.025296 -0.00315557)
(0 -0.0260891 -0.00332315)
(0 -0.0265728 -0.00345988)
(0 -0.026788 -0.00356865)
(0 -0.0267721 -0.00365213)
(0 -0.0265589 -0.00371271)
(0 -0.0261786 -0.0037525)
(0 -0.0256577 -0.00377338)
(0 -0.0250194 -0.003777)
(0 -0.0242842 -0.00376483)
(0 -0.0234702 -0.00373816)
(0 -0.022593 -0.00369816)
(0 -0.0216668 -0.00364588)
(0 -0.0207036 -0.0035823)
(0 -0.0197143 -0.00350831)
(0 -0.0187086 -0.00342475)
(0 -0.0176948 -0.00333242)
(0 -0.0166804 -0.00323206)
(0 -0.015672 -0.00312442)
(0 -0.0146755 -0.00301021)
(0 -0.0136958 -0.00289012)
(0 -0.0127373 -0.00276482)
(0 -0.0118039 -0.00263501)
(0 -0.0108986 -0.00250133)
(0 -0.010024 -0.00236445)
(0 -0.0091824 -0.00222499)
(0 -0.00837517 -0.00208355)
(0 -0.00760338 -0.00194068)
(0 -0.00686758 -0.00179693)
(0 -0.00616781 -0.0016528)
(0 -0.00550359 -0.00150876)
(0 -0.00487397 -0.00136526)
(0 -0.00427767 -0.00122263)
(0 -0.00371298 -0.00108118)
(0 -0.00317786 -0.000941122)
(0 -0.00266987 -0.000802623)
(0 -0.00218601 -0.000665727)
(0 -0.0017229 -0.000530372)
(0 -0.00127681 -0.000396408)
(0 -0.000843782 -0.000263589)
(0 -0.000419636 -0.000131585)
(0 0 0)
(0 0 0)
(0 -0.00364066 -0.000418495)
(0 -0.00716335 -0.000826795)
(0 -0.0104635 -0.00121583)
(0 -0.0134605 -0.00157845)
(0 -0.0161018 -0.00190983)
(0 -0.0183622 -0.00220734)
(0 -0.0202388 -0.00247023)
(0 -0.0217452 -0.00269908)
(0 -0.0229059 -0.00289539)
(0 -0.0237511 -0.00306115)
(0 -0.0243134 -0.00319861)
(0 -0.0246256 -0.00331)
(0 -0.0247189 -0.00339749)
(0 -0.0246224 -0.00346313)
(0 -0.0243624 -0.00350875)
(0 -0.0239631 -0.00353603)
(0 -0.0234458 -0.0035465)
(0 -0.0228297 -0.00354152)
(0 -0.0221316 -0.0035223)
(0 -0.0213668 -0.00348996)
(0 -0.0205486 -0.00344554)
(0 -0.0196889 -0.00338996)
(0 -0.0187985 -0.00332411)
(0 -0.0178865 -0.0032488)
(0 -0.0169615 -0.00316481)
(0 -0.0160308 -0.00307289)
(0 -0.015101 -0.00297374)
(0 -0.0141779 -0.00286806)
(0 -0.0132665 -0.00275653)
(0 -0.0123713 -0.0026398)
(0 -0.011496 -0.00251853)
(0 -0.0106439 -0.00239334)
(0 -0.00981758 -0.00226485)
(0 -0.00901929 -0.00213366)
(0 -0.00825062 -0.00200033)
(0 -0.00751275 -0.00186536)
(0 -0.00680629 -0.00172927)
(0 -0.00613139 -0.00159251)
(0 -0.00548774 -0.00145554)
(0 -0.00487458 -0.00131875)
(0 -0.00429079 -0.00118246)
(0 -0.00373496 -0.00104695)
(0 -0.00320533 -0.000912417)
(0 -0.00269967 -0.000779025)
(0 -0.00221539 -0.000646827)
(0 -0.00174942 -0.000515791)
(0 -0.00129847 -0.000385807)
(0 -0.000859076 -0.000256692)
(0 -0.000427537 -0.000128189)
(0 0 0)
(0 0 0)
(0 -0.00319082 -0.000374512)
(0 -0.00629068 -0.000741091)
(0 -0.00921753 -0.0010925)
(0 -0.0119053 -0.00142284)
(0 -0.0143077 -0.00172778)
(0 -0.016398 -0.00200467)
(0 -0.0181673 -0.00225225)
(0 -0.0196202 -0.00247044)
(0 -0.0207715 -0.00265997)
(0 -0.0216421 -0.00282211)
(0 -0.0222565 -0.00295845)
(0 -0.0226403 -0.00307068)
(0 -0.0228192 -0.00316054)
(0 -0.0228176 -0.00322973)
(0 -0.0226587 -0.00327983)
(0 -0.0223638 -0.0033123)
(0 -0.021952 -0.00332851)
(0 -0.0214411 -0.00332971)
(0 -0.0208469 -0.00331704)
(0 -0.0201835 -0.00329155)
(0 -0.0194637 -0.00325422)
(0 -0.0186991 -0.00320593)
(0 -0.0178998 -0.00314755)
(0 -0.0170749 -0.00307986)
(0 -0.0162327 -0.00300362)
(0 -0.0153804 -0.00291955)
(0 -0.0145245 -0.00282834)
(0 -0.0136708 -0.00273066)
(0 -0.0128242 -0.00262716)
(0 -0.0119891 -0.00251848)
(0 -0.0111694 -0.00240524)
(0 -0.0103683 -0.00228804)
(0 -0.00958855 -0.00216748)
(0 -0.00883234 -0.0020441)
(0 -0.00810136 -0.00191843)
(0 -0.00739684 -0.00179095)
(0 -0.00671954 -0.00166212)
(0 -0.00606973 -0.00153239)
(0 -0.00544716 -0.00140217)
(0 -0.0048513 -0.00127183)
(0 -0.00428125 -0.00114165)
(0 -0.0037358 -0.0010119)
(0 -0.00321345 -0.000882792)
(0 -0.0027123 -0.000754464)
(0 -0.00222995 -0.000626987)
(0 -0.00176376 -0.000500353)
(0 -0.0013108 -0.000374499)
(0 -0.00086804 -0.00024929)
(0 -0.000432247 -0.000124532)
(0 0 0)
(0 0 0)
(0 -0.00281566 -0.000337082)
(0 -0.00555993 -0.000667841)
(0 -0.00816735 -0.000986447)
(0 -0.0105836 -0.00128797)
(0 -0.0127682 -0.00156864)
(0 -0.0146954 -0.00182587)
(0 -0.0163529 -0.00205819)
(0 -0.0177401 -0.00226509)
(0 -0.0188648 -0.00244679)
(0 -0.0197409 -0.002604)
(0 -0.0203862 -0.00273781)
(0 -0.0208208 -0.00284947)
(0 -0.0210652 -0.00294035)
(0 -0.0211401 -0.00301181)
(0 -0.0210651 -0.00306517)
(0 -0.0208587 -0.00310172)
(0 -0.0205383 -0.00312267)
(0 -0.0201198 -0.00312913)
(0 -0.0196179 -0.00312216)
(0 -0.0190456 -0.00310273)
(0 -0.0184151 -0.00307174)
(0 -0.0177372 -0.00303007)
(0 -0.0170216 -0.00297852)
(0 -0.0162773 -0.00291784)
(0 -0.015512 -0.00284877)
(0 -0.0147329 -0.00277199)
(0 -0.0139463 -0.00268817)
(0 -0.0131579 -0.00259796)
(0 -0.0123725 -0.00250198)
(0 -0.0115946 -0.00240085)
(0 -0.0108279 -0.00229517)
(0 -0.0100757 -0.0021855)
(0 -0.00934071 -0.00207241)
(0 -0.00862518 -0.00195641)
(0 -0.0079309 -0.00183799)
(0 -0.00725916 -0.0017176)
(0 -0.00661074 -0.00159568)
(0 -0.00598602 -0.00147264)
(0 -0.00538496 -0.00134888)
(0 -0.0048071 -0.00122473)
(0 -0.00425178 -0.00110046)
(0 -0.00371805 -0.000976322)
(0 -0.00320461 -0.000852522)
(0 -0.00270979 -0.000729209)
(0 -0.00223151 -0.000606456)
(0 -0.00176738 -0.000484286)
(0 -0.00131492 -0.000362669)
(0 -0.000871449 -0.000241514)
(0 -0.000434148 -0.000120679)
(0 0 0)
(0 0 0)
(0 -0.00249917 -0.000304827)
(0 -0.00494134 -0.000604534)
(0 -0.00727363 -0.000894354)
(0 -0.00945101 -0.00117015)
(0 -0.0114385 -0.00142862)
(0 -0.0132122 -0.00166735)
(0 -0.0147586 -0.0018848)
(0 -0.0160733 -0.00208023)
(0 -0.0171597 -0.00225348)
(0 -0.0180266 -0.00240488)
(0 -0.0186867 -0.00253513)
(0 -0.0191552 -0.00264512)
(0 -0.0194486 -0.00273589)
(0 -0.0195838 -0.00280852)
(0 -0.0195774 -0.00286412)
(0 -0.0194456 -0.00290378)
(0 -0.0192037 -0.00292855)
(0 -0.0188659 -0.00293942)
(0 -0.0184455 -0.00293735)
(0 -0.0179547 -0.00292323)
(0 -0.0174046 -0.00289792)
(0 -0.0168055 -0.00286221)
(0 -0.0161667 -0.00281687)
(0 -0.0154964 -0.00276261)
(0 -0.0148024 -0.00270014)
(0 -0.0140914 -0.00263011)
(0 -0.0133697 -0.00255317)
(0 -0.0126425 -0.00246993)
(0 -0.0119149 -0.00238099)
(0 -0.0111911 -0.00228693)
(0 -0.0104748 -0.00218835)
(0 -0.00976927 -0.00208577)
(0 -0.00907729 -0.00197972)
(0 -0.00840109 -0.00187069)
(0 -0.00774244 -0.00175913)
(0 -0.00710273 -0.00164546)
(0 -0.00648286 -0.00153011)
(0 -0.00588321 -0.00141346)
(0 -0.00530386 -0.00129588)
(0 -0.00474459 -0.00117768)
(0 -0.00420487 -0.00105913)
(0 -0.00368397 -0.000940447)
(0 -0.00318084 -0.000821854)
(0 -0.00269399 -0.000703493)
(0 -0.00222159 -0.000585449)
(0 -0.00176159 -0.000467773)
(0 -0.00131181 -0.000350465)
(0 -0.000869969 -0.000233469)
(0 -0.000433584 -0.000116685)
(0 0 0)
(0 0 0)
(0 -0.00222938 -0.000276755)
(0 -0.00441257 -0.000549317)
(0 -0.00650641 -0.000813716)
(0 -0.00847334 -0.00106646)
(0 -0.0102832 -0.00130466)
(0 -0.0119142 -0.00152613)
(0 -0.0133525 -0.00172933)
(0 -0.014592 -0.00191337)
(0 -0.0156327 -0.00207788)
(0 -0.0164799 -0.00222292)
(0 -0.0171423 -0.00234887)
(0 -0.0176313 -0.00245634)
(0 -0.0179599 -0.0025461)
(0 -0.0181418 -0.00261901)
(0 -0.0181911 -0.00267597)
(0 -0.0181216 -0.00271787)
(0 -0.0179465 -0.00274564)
(0 -0.0176786 -0.00276016)
(0 -0.0173299 -0.00276227)
(0 -0.0169115 -0.00275279)
(0 -0.0164337 -0.00273249)
(0 -0.0159059 -0.00270213)
(0 -0.0153369 -0.00266242)
(0 -0.0147347 -0.00261403)
(0 -0.0141064 -0.00255762)
(0 -0.0134586 -0.00249383)
(0 -0.0127972 -0.00242326)
(0 -0.0121275 -0.00234651)
(0 -0.0114542 -0.00226414)
(0 -0.0107815 -0.00217673)
(0 -0.0101131 -0.0020848)
(0 -0.0094521 -0.00198889)
(0 -0.00880129 -0.00188949)
(0 -0.00816295 -0.00178704)
(0 -0.00753891 -0.00168198)
(0 -0.00693049 -0.00157469)
(0 -0.00633864 -0.00146558)
(0 -0.00576391 -0.00135503)
(0 -0.00520644 -0.00124338)
(0 -0.00466615 -0.00113091)
(0 -0.00414275 -0.00101787)
(0 -0.00363567 -0.000904505)
(0 -0.00314404 -0.000791008)
(0 -0.00266657 -0.000677528)
(0 -0.00220166 -0.000564162)
(0 -0.00174755 -0.000450982)
(0 -0.00130239 -0.000338021)
(0 -0.000864215 -0.000225248)
(0 -0.000430868 -0.000112598)
(0 0 0)
(0 0 0)
(0 -0.00199733 -0.000252136)
(0 -0.00395685 -0.000500768)
(0 -0.00584285 -0.00074259)
(0 -0.0076238 -0.000974624)
(0 -0.00927371 -0.00119435)
(0 -0.0107729 -0.00139978)
(0 -0.0121081 -0.00158945)
(0 -0.0132721 -0.00176239)
(0 -0.014263 -0.0019181)
(0 -0.0150832 -0.00205645)
(0 -0.0157385 -0.00217759)
(0 -0.0162374 -0.00228192)
(0 -0.0165899 -0.00236998)
(0 -0.0168073 -0.00244243)
(0 -0.0169009 -0.00249998)
(0 -0.0168827 -0.00254341)
(0 -0.0167642 -0.00257347)
(0 -0.0165567 -0.00259094)
(0 -0.0162707 -0.00259656)
(0 -0.0159163 -0.00259108)
(0 -0.015503 -0.0025752)
(0 -0.0150396 -0.00254961)
(0 -0.0145341 -0.00251497)
(0 -0.0139941 -0.00247191)
(0 -0.0134262 -0.00242106)
(0 -0.0128369 -0.00236302)
(0 -0.0122316 -0.00229835)
(0 -0.0116155 -0.00222763)
(0 -0.0109932 -0.00215139)
(0 -0.0103687 -0.00207018)
(0 -0.00974554 -0.00198452)
(0 -0.00912694 -0.00189488)
(0 -0.00851557 -0.00180174)
(0 -0.00791364 -0.00170551)
(0 -0.00732299 -0.00160659)
(0 -0.00674505 -0.00150536)
(0 -0.00618073 -0.0014022)
(0 -0.00563062 -0.00129748)
(0 -0.00509506 -0.0011915)
(0 -0.00457407 -0.00108454)
(0 -0.00406752 -0.000976849)
(0 -0.00357507 -0.000868646)
(0 -0.00309594 -0.000760134)
(0 -0.00262905 -0.000651456)
(0 -0.00217301 -0.000542724)
(0 -0.00172633 -0.000434031)
(0 -0.00128747 -0.000325429)
(0 -0.00085474 -0.000216914)
(0 -0.000426272 -0.000108448)
(0 0 0)
(0 0 0)
(0 -0.00179625 -0.000230354)
(0 -0.00356113 -0.000457772)
(0 -0.00526492 -0.000679443)
(0 -0.00688098 -0.000892815)
(0 -0.00838687 -0.00109568)
(0 -0.00976501 -0.00128625)
(0 -0.0110029 -0.00146314)
(0 -0.0120929 -0.00162539)
(0 -0.0130317 -0.00177241)
(0 -0.01382 -0.00190393)
(0 -0.0144614 -0.00201995)
(0 -0.014962 -0.00212068)
(0 -0.0153294 -0.0022065)
(0 -0.0155726 -0.00227789)
(0 -0.0157011 -0.00233544)
(0 -0.0157249 -0.00237975)
(0 -0.0156539 -0.00241148)
(0 -0.0154979 -0.00243128)
(0 -0.0152664 -0.00243983)
(0 -0.0149685 -0.00243777)
(0 -0.0146127 -0.00242575)
(0 -0.0142071 -0.00240439)
(0 -0.0137591 -0.0023743)
(0 -0.0132757 -0.00233609)
(0 -0.0127634 -0.00229032)
(0 -0.0122279 -0.00223755)
(0 -0.0116747 -0.00217834)
(0 -0.0111086 -0.00211321)
(0 -0.010534 -0.0020427)
(0 -0.00995482 -0.00196729)
(0 -0.00937454 -0.00188749)
(0 -0.00879618 -0.00180376)
(0 -0.00822239 -0.00171652)
(0 -0.00765543 -0.00162616)
(0 -0.00709707 -0.00153305)
(0 -0.00654866 -0.00143757)
(0 -0.00601127 -0.00134008)
(0 -0.00548549 -0.00124093)
(0 -0.00497173 -0.0011404)
(0 -0.00447024 -0.00103875)
(0 -0.00398102 -0.000936216)
(0 -0.00350382 -0.000833034)
(0 -0.00303806 -0.00072939)
(0 -0.00258276 -0.000625427)
(0 -0.00213677 -0.000521271)
(0 -0.00169887 -0.000417033)
(0 -0.00126776 -0.00031278)
(0 -0.000842037 -0.00020853)
(0 -0.00042005 -0.000104271)
(0 0 0)
(0 0 0)
(0 -0.00162072 -0.000210979)
(0 -0.00321523 -0.000419464)
(0 -0.00475852 -0.000623052)
(0 -0.00622795 -0.000819546)
(0 -0.00760408 -0.00100701)
(0 -0.00887128 -0.00118384)
(0 -0.0100179 -0.00134874)
(0 -0.0110364 -0.00150078)
(0 -0.0119227 -0.00163931)
(0 -0.0126761 -0.00176399)
(0 -0.0132987 -0.0018747)
(0 -0.0137946 -0.00197152)
(0 -0.0141695 -0.00205469)
(0 -0.0144308 -0.00212457)
(0 -0.0145861 -0.00218159)
(0 -0.0146437 -0.00222626)
(0 -0.0146123 -0.00225911)
(0 -0.0145002 -0.00228072)
(0 -0.014316 -0.00229166)
(0 -0.0140676 -0.0022925)
(0 -0.0137627 -0.00228382)
(0 -0.0134088 -0.0022662)
(0 -0.0130127 -0.0022402)
(0 -0.0125809 -0.00220635)
(0 -0.0121193 -0.0021652)
(0 -0.0116334 -0.00211729)
(0 -0.0111284 -0.00206311)
(0 -0.0106088 -0.00200317)
(0 -0.0100788 -0.00193798)
(0 -0.00954216 -0.00186801)
(0 -0.00900226 -0.00179371)
(0 -0.0084621 -0.00171552)
(0 -0.00792417 -0.00163383)
(0 -0.00739064 -0.001549)
(0 -0.00686335 -0.0014614)
(0 -0.00634362 -0.00137139)
(0 -0.00583242 -0.0012793)
(0 -0.00533055 -0.00118547)
(0 -0.00483849 -0.00109016)
(0 -0.00435656 -0.000993622)
(0 -0.00388497 -0.000896087)
(0 -0.00342356 -0.000797784)
(0 -0.00297183 -0.00069889)
(0 -0.00252897 -0.00059955)
(0 -0.00209403 -0.000499904)
(0 -0.00166605 -0.000400074)
(0 -0.00124395 -0.000300141)
(0 -0.000826553 -0.00020014)
(0 -0.00041243 -0.000100086)
(0 0 0)
(0 0 0)
(0 -0.00146658 -0.000193646)
(0 -0.00291107 -0.000385148)
(0 -0.00431226 -0.000572453)
(0 -0.0056508 -0.000753646)
(0 -0.00690981 -0.000927029)
(0 -0.00807544 -0.00109115)
(0 -0.00913703 -0.00124482)
(0 -0.0100872 -0.00138714)
(0 -0.0109215 -0.00151746)
(0 -0.0116383 -0.00163539)
(0 -0.0122385 -0.00174072)
(0 -0.0127249 -0.00183344)
(0 -0.0131017 -0.00191367)
(0 -0.0133746 -0.00198166)
(0 -0.0135498 -0.00203775)
(0 -0.0136344 -0.00208233)
(0 -0.0136356 -0.00211584)
(0 -0.0135607 -0.00213878)
(0 -0.0134171 -0.00215162)
(0 -0.0132119 -0.00215489)
(0 -0.0129521 -0.00214911)
(0 -0.0126444 -0.00213477)
(0 -0.012295 -0.0021124)
(0 -0.0119099 -0.00208249)
(0 -0.0114946 -0.00204555)
(0 -0.0110543 -0.00200206)
(0 -0.0105937 -0.00195252)
(0 -0.0101173 -0.00189739)
(0 -0.00962891 -0.00183716)
(0 -0.00913222 -0.00177225)
(0 -0.00863042 -0.00170311)
(0 -0.00812635 -0.00163012)
(0 -0.00762254 -0.00155365)
(0 -0.00712106 -0.00147405)
(0 -0.0066236 -0.00139166)
(0 -0.00613155 -0.00130684)
(0 -0.00564592 -0.00121991)
(0 -0.00516746 -0.00113116)
(0 -0.00469686 -0.00104086)
(0 -0.00423455 -0.000949239)
(0 -0.00378081 -0.000856537)
(0 -0.00333558 -0.00076297)
(0 -0.00289843 -0.000668707)
(0 -0.00246872 -0.000573896)
(0 -0.00204569 -0.000478687)
(0 -0.0016286 -0.000383212)
(0 -0.00121661 -0.000287558)
(0 -0.000808678 -0.000191778)
(0 -0.000403604 -9.59101e-05)
(0 0 0)
(0 0 0)
(0 -0.00133046 -0.000178042)
(0 -0.00264211 -0.000354245)
(0 -0.00391693 -0.000526814)
(0 -0.00513825 -0.000694082)
(0 -0.00629142 -0.000854546)
(0 -0.00736414 -0.0010069)
(0 -0.00834667 -0.00115008)
(0 -0.00923196 -0.00128321)
(0 -0.0100154 -0.00140566)
(0 -0.010695 -0.00151698)
(0 -0.0112706 -0.00161694)
(0 -0.0117439 -0.00170544)
(0 -0.0121181 -0.00178253)
(0 -0.0123973 -0.00184837)
(0 -0.0125869 -0.00190319)
(0 -0.0126926 -0.00194731)
(0 -0.0127203 -0.0019811)
(0 -0.0126766 -0.00200495)
(0 -0.0125678 -0.0020193)
(0 -0.0124003 -0.00202459)
(0 -0.0121802 -0.00202127)
(0 -0.0119135 -0.0020098)
(0 -0.011606 -0.00199066)
(0 -0.0112632 -0.00196429)
(0 -0.0108901 -0.00193116)
(0 -0.0104915 -0.00189174)
(0 -0.010072 -0.00184646)
(0 -0.00963553 -0.00179579)
(0 -0.00918593 -0.00174017)
(0 -0.00872659 -0.00168)
(0 -0.00826065 -0.00161568)
(0 -0.00779078 -0.00154758)
(0 -0.00731933 -0.00147602)
(0 -0.00684841 -0.00140135)
(0 -0.00637963 -0.00132391)
(0 -0.00591425 -0.00124402)
(0 -0.00545339 -0.001162)
(0 -0.0049979 -0.00107812)
(0 -0.00454846 -0.000992613)
(0 -0.00410572 -0.000905729)
(0 -0.00366995 -0.0008177)
(0 -0.00324117 -0.000728726)
(0 -0.00281903 -0.000638969)
(0 -0.00240302 -0.000548584)
(0 -0.00199262 -0.000457728)
(0 -0.00158726 -0.000366535)
(0 -0.00118627 -0.0002751)