/*--------------------------------*- C++ -*----------------------------------*\
| =========                 |                                                 |
| \\      /  F ield         | foam-extend: Open Source CFD                    |
|  \\    /   O peration     | Version:     3.2                                |
|   \\  /    A nd           | Web:         http://www.foam-extend.org         |
|    \\/     M anipulation  | For copyright notice see file Copyright         |
\*---------------------------------------------------------------------------*/
FoamFile
{
    version     2.0;
    format      ascii;
    class       surfaceScalarField;
    location    "0.02";
    object      phi;
}
// * * * * * * * * * * * * * * * * * * * * * * * * * * * * * * * * * * * * * //

dimensions      [0 3 -1 0 0 0 0];

internalField   nonuniform List<scalar> 
4900
(
3.53277e-20
2.35767e-20
7.39809e-20
-5.19681e-20
3.97137e-20
3.7948e-20
4.45634e-20
-1.32477e-20
3.03762e-20
8.8032e-21
6.83042e-20
-1.21865e-20
4.16422e-20
4.02071e-20
-6.53898e-21
-2.5371e-21
2.77697e-21
-1.48686e-20
2.82814e-20
1.84417e-20
8.84357e-21
2.85502e-20
-8.32716e-21
-1.57646e-20
-4.5433e-21
-8.31722e-21
-3.29795e-20
3.1777e-20
2.6665e-20
-6.77702e-20
5.32276e-20
-6.75473e-20
-1.88062e-21
2.59608e-20
-1.45794e-20
2.05418e-20
-1.76344e-20
4.62101e-21
-6.61277e-21
-2.55343e-20
2.64359e-20
-1.71089e-20
3.41459e-20
7.00504e-21
2.61276e-20
1.51747e-20
-1.54751e-20
6.51925e-21
7.75405e-21
-1.85047e-21
-1.57236e-20
2.36326e-20
-5.58163e-20
3.42662e-20
-1.51298e-20
-6.57653e-20
1.79666e-20
-4.47147e-20
-1.92145e-21
4.47934e-20
-2.95325e-21
1.81868e-20
-2.77407e-20
2.14493e-20
9.74975e-21
-7.49527e-21
-3.40906e-20
1.44955e-20
1.10036e-20
-4.417e-20
5.9897e-21
-1.32271e-20
-2.16049e-20
2.29691e-20
8.47865e-21
-2.65509e-20
-4.64281e-20
8.58177e-20
-7.17651e-20
9.14645e-21
-5.2663e-21
-3.22197e-20
-2.6915e-20
-1.0584e-21
-2.57902e-20
1.24876e-20
-6.83618e-21
1.86882e-20
-4.65437e-20
2.8295e-20
-5.88872e-20
2.02501e-20
-2.90409e-20
-2.45989e-20
-5.01195e-21
-1.50926e-20
-8.30721e-21
1.21945e-20
3.85902e-20
4.567e-20
6.16696e-21
6.4757e-20
1.61552e-21
9.14796e-20
3.12032e-20
6.88567e-20
-6.17127e-20
4.18736e-21
2.92638e-20
-3.18332e-21
-2.7077e-20
4.75157e-20
-1.01913e-20
8.39109e-20
2.28881e-20
2.48733e-20
-3.31576e-21
-8.02594e-21
6.04936e-20
7.72128e-22
-2.47795e-20
-7.1596e-21
-3.49304e-20
3.93614e-21
-3.68027e-21
3.36526e-20
1.25216e-20
1.20757e-20
-5.1011e-20
-4.24809e-20
-2.23373e-20
-3.67682e-20
1.88268e-20
-4.92341e-21
1.55448e-20
1.84706e-20
-6.62597e-21
1.06632e-20
-2.41008e-20
-4.37298e-21
1.06371e-20
1.27248e-20
3.8082e-20
-5.10356e-21
-1.32604e-20
3.66235e-21
6.64251e-21
6.60259e-21
-2.39252e-20
-9.11608e-21
4.2455e-20
2.70399e-20
6.56672e-21
3.53025e-20
-6.66143e-20
-5.80823e-20
4.45887e-20
-6.64726e-20
5.25086e-20
-1.79257e-20
4.23188e-21
2.75961e-21
-1.35534e-20
4.84839e-20
-3.62335e-20
-1.04606e-20
4.42832e-20
-8.58929e-22
-1.8252e-20
-3.74913e-20
5.73953e-20
-2.26296e-20
1.48166e-20
4.53578e-21
-6.86792e-20
-1.21353e-21
6.07078e-20
3.40959e-20
1.40912e-20
-2.80066e-20
5.84134e-21
-2.64894e-20
1.74892e-21
-6.00788e-20
5.78299e-20
-4.60409e-20
1.76038e-20
-4.87018e-20
5.37755e-21
-3.55163e-20
1.34222e-20
-4.35549e-20
-1.79938e-20
-2.82676e-20
-5.24255e-21
-4.52527e-20
4.90312e-20
-4.95965e-21
1.15449e-19
-1.81781e-20
6.64794e-20
6.14313e-20
5.63456e-20
2.41439e-21
4.60148e-20
-5.11409e-20
-1.36235e-20
6.01017e-20
-1.59464e-20
-5.15994e-20
4.13175e-20
-3.65471e-20
2.73211e-20
2.02568e-20
1.90543e-21
-2.04878e-20
1.68637e-20
6.58923e-20
2.31664e-22
-8.903e-21
2.45564e-20
-1.0029e-20
-1.55323e-21
1.94041e-20
3.36125e-20
-1.10943e-20
4.77491e-20
-5.17161e-20
-3.54636e-20
2.34981e-20
1.8034e-20
3.60935e-20
-2.27334e-21
2.00004e-21
2.84516e-20
4.83902e-20
2.29074e-21
-1.70201e-20
6.57886e-21
1.27466e-20
1.31168e-20
6.57303e-20
-9.63494e-21
2.08549e-20
-4.47823e-20
4.8382e-21
-6.57865e-20
-6.99457e-21
1.67959e-20
-2.88693e-20
4.20695e-20
9.86142e-21
-2.14234e-20
-1.66722e-20
-4.23915e-20
1.35959e-21
1.60469e-20
1.59563e-21
-1.28177e-20
-1.36223e-20
-4.29345e-20
1.78901e-22
3.86483e-21
-4.33841e-20
1.13259e-20
5.93606e-20
2.91865e-20
-3.36343e-21
2.77125e-20
5.39633e-20
2.74653e-20
2.63299e-20
-1.69402e-20
2.94034e-21
-3.83212e-20
4.50405e-20
2.89098e-20
-5.49158e-21
-2.62673e-20
3.54453e-20
-5.85392e-20
5.36407e-20
-9.79519e-20
4.14525e-20
-3.85454e-20
3.26227e-20
-3.87833e-20
-2.74781e-20
-3.84437e-20
3.99587e-20
-6.50725e-20
-1.35759e-20
4.93405e-21
-3.26942e-20
-3.69386e-21
5.65948e-20
1.52221e-20
3.5322e-20
4.6532e-20
8.56105e-20
-3.16257e-20
8.64417e-20
-6.03185e-21
7.8265e-20
-4.71142e-20
5.08552e-20
2.11516e-20
-1.10087e-20
1.17978e-20
3.0659e-20
-9.0857e-21
3.41215e-20
-3.26562e-20
-2.22151e-20
-1.95431e-20
5.20951e-20
-1.19344e-20
1.92641e-20
-7.55349e-21
-3.46915e-20
1.23177e-20
-4.43545e-20
9.42344e-21
8.26765e-21
-3.71495e-21
-7.42753e-21
-3.00351e-20
-1.84018e-20
3.15348e-21
8.63035e-21
8.67604e-21
1.27974e-20
-1.74029e-20
1.56888e-20
4.58131e-20
4.76782e-21
2.702e-20
1.24306e-20
5.49457e-20
3.86926e-20
4.27489e-20
-4.91993e-20
2.1916e-20
-2.3124e-21
-4.28909e-20
-2.2199e-20
7.66064e-21
-3.93909e-21
-3.2039e-20
-1.60102e-20
4.15242e-21
1.51628e-20
-4.86545e-20
-1.45491e-20
5.19097e-20
9.84032e-21
-9.42526e-21
1.05069e-20
-2.02811e-20
4.30539e-21
-5.06203e-22
-1.71186e-20
-2.76566e-20
-1.15954e-20
4.71202e-20
-2.55524e-20
-1.19282e-20
3.20078e-21
-1.48703e-20
-1.3917e-20
1.26598e-20
-1.0636e-20
-2.56155e-21
1.19945e-20
-2.84343e-20
4.57088e-20
-1.20653e-20
-1.44922e-20
1.89544e-20
-4.89014e-20
5.39975e-20
-7.30921e-20
1.16285e-20
-6.4597e-20
-1.99995e-20
-6.1791e-20
-4.71214e-20
-4.64665e-20
2.93534e-20
-5.20801e-20
-2.73935e-20
-4.10896e-20
1.05632e-20
-2.59812e-20
7.83819e-20
-1.54679e-20
5.11738e-20
1.96706e-20
7.88327e-20
-1.42692e-20
5.87893e-20
2.81623e-20
4.2417e-20
-2.8282e-20
4.94487e-20
-2.26813e-20
3.70772e-20
-1.24354e-20
3.09974e-20
2.78731e-20
7.90914e-20
-8.51818e-21
2.1734e-20
4.23895e-20
-1.3569e-21
-1.27191e-20
-1.17644e-20
-5.12199e-20
-3.80824e-20
-2.36226e-20
-2.48427e-21
1.41446e-20
1.22691e-20
1.15909e-20
-2.30439e-20
-1.88828e-20
-1.24499e-20
-3.58555e-21
2.3958e-20
1.3102e-21
3.08842e-20
-2.72989e-20
5.71379e-20
3.75345e-20
2.13121e-20
3.23255e-21
2.18644e-20
6.31863e-21
1.77655e-20
3.01542e-20
-9.6924e-22
3.97277e-20
-4.86629e-20
-2.55726e-20
-2.63432e-20
8.08158e-22
3.22364e-20
-3.86538e-21
1.77058e-21
4.35696e-20
-2.198e-20
3.16584e-20
-8.66959e-21
6.08777e-20
1.03929e-20
-4.5872e-21
-2.30175e-20
1.63254e-20
1.69627e-20
-9.19097e-22
-2.51322e-20
5.27114e-20
1.90804e-20
1.27259e-20
-3.19137e-21
-2.56213e-20
-6.60354e-20
1.87046e-20
1.78017e-20
-2.85159e-20
1.38354e-20
1.18831e-20
1.26494e-20
2.50841e-20
-9.23889e-21
-3.01277e-20
-7.37091e-20
2.78863e-20
-4.22197e-20
-3.96872e-21
-3.31555e-20
-2.11489e-20
-4.29734e-20
2.02126e-20
-9.29416e-20
-5.4821e-20
-7.20535e-20
3.2783e-20
-8.94631e-20
4.13383e-21
-9.0372e-20
-1.87747e-20
3.75301e-21
-4.89249e-20
-4.89738e-21
9.41491e-20
-4.77694e-20
4.20961e-20
2.83123e-20
2.17262e-20
-1.57621e-20
8.48039e-20
-2.02006e-20
5.30797e-20
2.18931e-20
4.56755e-20
-3.05516e-20
6.34535e-20
1.67915e-20
6.89078e-20
-3.33889e-20
4.7918e-20
-4.015e-21
2.02514e-20
-5.32417e-20
1.92695e-20
-1.47654e-20
-6.48603e-21
3.56124e-20
-4.2147e-20
2.40168e-20
-1.71883e-20
3.14741e-20
-5.60511e-21
-2.98566e-20
2.25366e-20
-7.4512e-21
-3.57764e-21
2.36638e-20
-3.18603e-21
2.62562e-20
2.6928e-20
2.10661e-20
5.88331e-20
-1.51755e-20
5.068e-21
3.67123e-20
-4.05811e-21
-1.03636e-20
-3.189e-20
4.37402e-21
-4.56082e-20
2.7948e-20
-1.56626e-20
2.05663e-20
2.07492e-20
-4.69644e-20
4.51715e-20
5.76038e-20
8.47512e-21
2.70383e-20
-2.29868e-20
5.19709e-20
-1.86612e-20
-4.23439e-20
-4.23277e-20
6.99576e-20
8.9054e-21
-1.39245e-20
5.69203e-22
2.93376e-20
1.15932e-22
5.12082e-20
-3.48731e-21
5.1633e-21
7.54493e-21
3.12822e-20
-5.5524e-21
-5.51462e-20
-1.83406e-20
2.14493e-20
-1.55877e-21
4.09926e-21
-3.02733e-20
-6.31818e-21
-5.53971e-20
1.46967e-20
-3.16434e-20
-6.63293e-20
-4.94472e-20
2.8372e-20
-5.97068e-20
3.80116e-21
-7.03514e-20
-3.41533e-21
-3.97028e-21
6.84431e-21
-3.48845e-20
1.74344e-20
-2.63242e-20
2.10746e-21
-7.47267e-21
-1.53858e-20
-1.82243e-20
3.62647e-20
-2.31045e-20
3.80363e-20
1.6646e-20
4.99427e-20
-6.4339e-20
5.75803e-20
-5.38715e-20
7.98593e-20
4.21416e-20
6.95759e-21
-6.37695e-21
8.01595e-20
6.49345e-21
1.57854e-20
-4.64708e-20
-2.09317e-21
-4.99463e-20
3.00247e-21
-3.96221e-20
3.46603e-20
-3.10023e-22
7.33109e-21
3.24981e-20
-9.99138e-21
3.30685e-20
4.3606e-20
-8.22887e-21
1.65931e-20
-2.06615e-20
8.88325e-21
2.79424e-20
8.83532e-22
1.35603e-20
-4.20028e-21
3.32977e-20
3.16471e-20
4.62322e-20
1.90474e-20
-1.44671e-20
-1.05839e-20
7.01886e-20
-3.03109e-20
-1.60797e-20
-1.40119e-20
-1.74415e-21
1.76229e-20
2.08983e-20
1.03677e-20
5.70099e-20
-2.70314e-20
-1.33122e-21
1.26451e-20
3.20371e-20
2.31105e-20
-4.40246e-20
1.58082e-20
7.10949e-20
-8.07971e-20
-4.35235e-21
1.35269e-20
6.24897e-20
-1.01166e-20
5.554e-22
-2.13845e-20
3.45094e-20
2.20877e-21
4.76645e-20
-4.63622e-20
2.63176e-20
-9.42396e-21
-3.2247e-22
-4.19486e-20
-4.6925e-20
-1.49736e-20
3.79508e-20
3.91538e-20
-4.01922e-20
1.49264e-20
-9.01011e-21
-5.37815e-20
-1.17792e-20
-6.40235e-20
-4.09665e-20
-5.4189e-20
1.99918e-20
-7.33012e-20
-3.53324e-20
-7.72524e-20
1.08355e-20
-4.19307e-20
-3.03806e-20
-5.36916e-20
-1.78082e-20
-1.1889e-20
-9.86431e-21
-2.11679e-20
8.35844e-21
1.88974e-20
1.02168e-20
-1.03325e-20
6.12237e-20
1.60444e-21
4.14085e-20
2.89009e-21
2.49708e-20
-1.05772e-20
1.45714e-20
5.12875e-21
1.25452e-20
-1.6956e-20
5.21589e-20
-1.86553e-20
1.77778e-20
1.75907e-21
-2.65744e-21
1.01983e-20
5.53686e-20
-3.36805e-20
8.1977e-20
-2.72464e-20
-6.59023e-21
3.34105e-20
4.82217e-21
1.78418e-20
5.35437e-20
2.73386e-20
3.1482e-20
-2.98546e-20
-4.85109e-21
1.3721e-20
-5.54384e-21
2.46933e-20
5.14252e-21
-1.0497e-20
3.06063e-20
2.15402e-20
1.16038e-20
1.41506e-21
1.9587e-20
3.01961e-20
-1.60988e-21
1.33138e-22
-2.80609e-20
-1.18632e-20
-4.41472e-21
2.3709e-20
3.43333e-20
1.75942e-20
1.51117e-20
3.13495e-20
-1.6836e-20
3.74593e-20
-4.42659e-20
-3.77837e-20
-8.15659e-21
-1.41059e-21
-3.54023e-20
1.56339e-20
-3.20841e-21
3.74188e-20
-1.63031e-20
-1.07907e-20
-8.70516e-21
1.93726e-20
-1.00786e-20
5.76025e-20
-5.90168e-21
1.8193e-21
-6.92323e-21
4.6877e-20
-3.964e-20
-6.2301e-20
-6.71461e-21
5.28298e-21
-7.5002e-21
-4.77375e-22
-2.69403e-20
-4.33285e-20
-2.81053e-20
1.41106e-22
-6.88433e-20
-1.6889e-20
-3.1767e-20
-2.9671e-20
-2.20543e-20
-4.58226e-20
5.47762e-21
1.39896e-20
-7.95624e-20
9.79615e-21
-8.70427e-20
-9.62394e-22
-4.35459e-20
-4.8076e-20
-1.74834e-20
2.273e-20
2.33442e-20
5.97061e-21
-4.10084e-20
7.88353e-20
-4.54704e-20
6.62351e-20
1.55394e-20
5.89005e-20
-6.93937e-21
7.17961e-20
7.17275e-21
3.51896e-20
-8.23946e-21
5.55423e-21
-1.66642e-20
4.58873e-20
5.54135e-21
3.90871e-20
1.62599e-20
4.1153e-20
-1.57099e-20
2.46328e-21
3.89418e-22
1.41317e-20
-7.73059e-21
-1.2137e-20
-6.77699e-21
2.71418e-20
2.1015e-20
-4.89705e-21
-1.53402e-20
2.6263e-21
-2.89958e-20
1.57902e-20
3.89514e-21
-2.75601e-20
6.67042e-20
1.86526e-20
-7.21013e-21
2.27815e-20
-3.36282e-20
4.00096e-21
1.46596e-21
-3.57607e-20
4.70392e-21
1.62729e-20
-3.22413e-20
9.73181e-21
1.37374e-20
4.57663e-21
2.1208e-20
2.07863e-21
7.90086e-20
1.69798e-20
1.4117e-20
-3.82648e-20
1.39171e-20
-9.15445e-21
4.82769e-21
3.42765e-20
3.18623e-20
-2.5848e-20
6.45484e-20
-6.50251e-20
-2.8039e-20
-3.43886e-20
1.54203e-20
5.55773e-21
1.14025e-20
5.07328e-20
-1.65482e-20
3.40515e-20
5.11126e-20
2.54782e-21
-2.20758e-20
-3.11715e-20
4.8338e-21
9.77865e-21
2.60089e-20
-4.50933e-21
-1.40536e-20
-1.5178e-20
1.46112e-20
-4.60062e-20
-1.62426e-20
-4.31044e-20
-5.02157e-21
-5.56092e-20
-9.29068e-21
-7.88472e-20
-1.70907e-20
-6.70645e-20
-3.20457e-20
-6.39055e-20
-1.29398e-20
-4.806e-20
-3.11175e-20
-3.00637e-20
2.33076e-20
-5.2378e-21
3.22849e-20
-4.80611e-20
4.2952e-20
-7.87682e-22
5.94711e-20
1.74753e-20
4.2402e-20
-2.86603e-20
5.77462e-20
8.69163e-21
2.03968e-20
9.3536e-21
-1.5455e-20
-8.12992e-21
5.13227e-20
7.40881e-21
6.36995e-20
-4.69577e-21
2.44445e-20
3.37751e-20
8.28368e-21
-8.49263e-21
3.13475e-21
-3.02052e-20
4.55265e-21
-1.87884e-20
-5.00166e-22
4.17046e-20
5.19718e-21
3.61649e-20
-2.80361e-20
-2.69186e-20
2.74242e-20
-4.96524e-20
6.90746e-20
-1.44172e-20
7.16697e-20
-2.28393e-20
7.49944e-21
-9.55486e-22
-9.87539e-21
3.74581e-21
-9.85931e-21
-5.81695e-21
-4.10034e-20
-8.35953e-21
7.39056e-21
2.9486e-20
-5.02164e-21
1.56804e-20
7.98797e-21
1.69287e-20
5.31199e-20
-6.80662e-21
7.36478e-21
2.28608e-20
-1.32661e-20
5.47685e-20
6.60867e-21
2.9056e-20
-1.33735e-20
5.17968e-20
-1.54869e-20
-3.09373e-20
-5.44219e-20
-2.43812e-21
-2.0137e-20
2.03533e-20
-6.19916e-20
3.86123e-20
8.96137e-21
-1.3093e-21
5.55448e-21
1.66923e-20
-1.22491e-20
3.42179e-20
-1.02422e-20
3.20698e-20
-3.60515e-20
-1.17793e-20
-3.91137e-20
2.14018e-21
-6.23074e-21
-4.24934e-20
-5.37689e-20
6.78731e-21
-7.1021e-20
1.5921e-21
-8.22699e-20
3.72583e-20
-5.49632e-20
-4.87227e-20
-5.50813e-20
-5.32559e-20
-2.42948e-20
1.78814e-21
1.28562e-20
-2.4869e-20
2.24626e-20
-1.76165e-20
4.28467e-21
4.97668e-20
8.8354e-22
1.19571e-19
-2.53286e-20
7.15262e-20
-2.52942e-20
2.72836e-20
-1.41068e-20
3.26943e-20
-1.66507e-20
2.88665e-20
-7.94565e-20
2.77933e-20
1.58368e-20
2.90674e-20
-3.27679e-20
4.70579e-20
4.32114e-21
4.37872e-20
-2.94975e-20
2.68489e-20
-5.7538e-21
-8.04578e-21
-9.95624e-21
1.05977e-20
-1.2628e-20
4.60721e-20
-4.98584e-21
-7.88409e-21
1.43787e-20
1.94394e-21
-2.43113e-20
-1.2253e-20
-4.83287e-21
-2.68221e-21
1.51568e-20
5.53825e-20
-1.51482e-20
3.8759e-20
1.00798e-20
-1.83117e-20
7.79289e-21
-8.29067e-21
1.7279e-20
1.09913e-21
2.03404e-20
-1.29064e-20
3.40755e-21
3.59567e-20
2.07622e-20
-1.45836e-20
1.54387e-20
-1.20816e-20
-1.27057e-20
-2.36627e-20
1.85839e-20
-2.94592e-21
1.02451e-20
1.66862e-21
-1.01143e-21
5.1369e-20
-3.69966e-20
2.83396e-20
1.157e-20
-1.96798e-20
-1.8934e-20
-4.1481e-20
6.2977e-20
-5.07553e-20
-2.16717e-20
-3.32622e-20
-5.23301e-20
1.89523e-20
9.03268e-21
4.34158e-20
3.31864e-20
-1.45436e-20
-1.12397e-20
-3.76594e-20
-1.31138e-20
-5.76032e-20
-1.60452e-20
-7.85526e-20
1.1011e-20
-4.99693e-20
-2.46066e-20
-2.31139e-20
-7.82899e-21
-3.93269e-20
-2.86619e-20
-4.01299e-20
-6.7745e-20
-7.92636e-21
5.06187e-20
-2.89518e-20
-9.0969e-22
-1.32012e-20
6.92473e-20
-2.82818e-20
5.7413e-20
6.35748e-21
5.85806e-20
-3.28322e-21
4.3074e-20
-2.96948e-20
3.3251e-20
-3.60984e-20
4.88639e-20
-3.3487e-20
-1.13105e-20
-1.77987e-20
3.14556e-21
4.08363e-20
5.00138e-20
-7.58352e-20
4.78529e-20
-2.38944e-20
7.22471e-20
-4.06208e-20
4.84031e-20
-3.31241e-20
-1.58984e-20
-4.21603e-21
1.65112e-21
-3.77579e-20
2.82442e-20
-5.37165e-20
2.54021e-20
4.73899e-20
1.31983e-20
-4.44203e-20
8.65426e-21
-1.24039e-20
2.67982e-20
-2.10113e-20
-1.02892e-20
-1.35504e-20
2.82005e-21
-1.81909e-20
-8.08325e-21
1.20513e-20
4.90478e-20
2.7792e-20
3.5557e-20
-1.24303e-20
2.73768e-20
8.48242e-21
1.99508e-20
1.29994e-20
-1.53925e-20
-1.64344e-20
-2.02471e-20
2.45744e-20
-3.46792e-20
1.9296e-20
-1.05476e-20
-6.58043e-21
-2.67134e-20
2.46086e-20
-1.11841e-20
-1.47199e-20
3.13365e-20
-1.09189e-20
-1.94779e-20
-1.38657e-20
2.75684e-20
-1.02756e-20
2.51346e-21
-4.58211e-21
-3.92796e-20
-2.36856e-20
-4.12503e-20
1.00043e-20
1.3367e-20
2.01718e-21
-2.27971e-20
-6.55505e-21
-1.6759e-20
-2.68416e-20
-4.72881e-20
1.64275e-20
-3.59376e-20
2.74724e-21
-2.42109e-20
-2.07488e-21
-2.89312e-20
1.69367e-20
-5.42613e-20
-1.69395e-20
-8.81475e-20
1.37476e-20
-4.74609e-20
3.22175e-20
-8.8931e-21
-3.18881e-20
-2.75584e-20
3.5435e-20
-5.074e-20
4.40291e-20
4.95524e-20
2.76602e-20
1.61655e-20
3.16372e-20
-2.85032e-21
6.30668e-20
-8.03939e-20
4.46684e-20
-5.5278e-20
-1.87137e-20
4.10586e-20
5.78744e-20
-3.96151e-21
5.90499e-20
-6.01077e-20
5.44742e-20
3.08749e-20
2.97159e-20
1.12919e-20
9.16645e-21
-1.20041e-20
1.9399e-20
1.92522e-20
-3.75928e-20
1.20182e-20
1.19968e-20
-7.17973e-20
6.03295e-20
1.20894e-20
1.56276e-20
1.92731e-20
-1.4029e-20
9.79998e-21
-2.03601e-21
-2.3309e-20
1.69135e-20
-1.6914e-20
7.23611e-21
2.13238e-20
9.90221e-21
3.61912e-20
4.59428e-20
-4.35058e-21
3.31654e-20
-6.02273e-21
1.65575e-20
6.30704e-20
1.24953e-20
2.48325e-21
1.05108e-20
-1.66523e-20
-7.82132e-21
5.51265e-21
-3.73825e-21
-2.48012e-21
-3.71681e-20
6.14362e-21
-4.35318e-20
2.48026e-20
-3.39483e-20
-1.85797e-20
-1.69709e-20
-2.97562e-20
-3.74358e-20
-8.99293e-22
-1.00513e-20
-3.51247e-20
-1.84613e-20
-4.01078e-20
-3.79782e-20
8.5033e-21
4.73033e-21
3.2758e-20
1.69514e-20
-7.76009e-21
-4.66676e-20
-2.79509e-21
-6.79831e-20
-4.84936e-20
-3.87423e-20
7.99219e-21
-3.3517e-20
2.29791e-20
-8.43649e-20
3.00835e-20
-5.15414e-20
3.68101e-20
-4.74011e-20
-5.50712e-20
-7.12724e-20
2.68788e-20
-1.95379e-20
-1.3704e-20
2.7889e-21
-1.45491e-20
2.9686e-21
-3.62828e-20
8.28742e-21
4.53814e-20
8.35693e-21
1.12076e-19
-5.90303e-20
5.34985e-20
-8.36738e-21
7.56204e-20
-1.36204e-20
1.99178e-20
2.01812e-20
6.80013e-21
6.91976e-21
3.76212e-20
-7.09448e-20
2.16489e-20
-5.05725e-20
6.45652e-20
-9.48578e-21
7.4767e-20
-3.16147e-20
4.34059e-20
-7.94348e-21
4.07504e-20
1.38617e-20
2.4454e-20
-5.11196e-20
-3.34252e-20
-1.38998e-21
-2.13673e-21
-9.41768e-21
-1.44631e-21
-3.59238e-20
2.61017e-21
3.61542e-20
2.48556e-20
-6.16178e-20
-1.40941e-20
-8.65294e-21
6.96516e-21
-2.19532e-20
2.11471e-20
2.34527e-20
4.84081e-20
2.2545e-20
2.82249e-20
-3.45036e-20
1.15349e-20
2.11564e-20
-9.82663e-21
-7.54797e-21
-1.71404e-20
-1.77094e-20
1.01749e-23
-9.73505e-21
1.59874e-20
-5.55506e-20
-5.305e-21
-1.16736e-20
1.80741e-20
7.11112e-21
-2.88632e-21
1.87806e-20
-4.57245e-20
-3.40602e-20
-5.36542e-20
1.54936e-20
-6.47778e-20
-6.50468e-21
-3.79588e-20
-5.40927e-20
-7.7536e-21
3.47596e-20
2.41175e-20
1.50877e-20
-1.01954e-20
1.7608e-20
-1.41533e-20
6.30149e-21
-7.19733e-20
-9.36009e-21
-4.25765e-20
-2.69651e-20
-2.7761e-20
-1.17686e-20
-4.87725e-20
2.59789e-21
-3.95972e-20
-3.34013e-20
-4.42671e-20
-1.79125e-20
-6.47632e-20
2.38797e-20
2.91332e-21
-8.75468e-21
6.36204e-21
-2.77374e-20
-3.61099e-21
2.35765e-20
-1.86838e-20
3.09185e-20
2.44554e-20
1.14713e-20
-1.71606e-20
1.44934e-20
-1.71731e-20
3.13647e-20
-8.41836e-21
7.24745e-20
-2.8889e-20
4.73103e-20
1.00068e-20
3.42972e-20
-1.81915e-20
5.53442e-20
-4.79401e-20
6.05093e-20
9.93817e-21
1.29356e-20
1.65073e-20
4.43201e-21
-4.29492e-20
1.0662e-20
-6.55154e-21
6.30658e-21
-6.54529e-20
4.44021e-21
3.48357e-20
-1.09185e-20
-1.19303e-20
2.75513e-20
-1.43322e-20
4.2186e-20
2.78357e-20
3.17726e-20
-2.47744e-20
-1.8445e-20
2.10539e-20
-1.4968e-23
3.12807e-20
3.99937e-20
-3.82406e-20
8.05809e-21
3.5371e-20
-1.12852e-20
-3.44333e-20
-1.83039e-20
1.06366e-20
-2.05284e-20
-8.85981e-21
1.46199e-20
-2.42778e-20
5.66548e-21
-1.22246e-20
-1.45101e-20
-7.04409e-21
-1.68617e-20
5.14555e-21
-2.61307e-20
-3.53613e-20
-1.54469e-20
-7.20745e-20
-3.03372e-20
-2.92102e-20
-1.89181e-20
-2.28387e-21
-2.08781e-20
-2.01693e-20
-1.79387e-20
-7.99166e-21
1.0613e-20
3.20462e-21
-1.0217e-20
6.17238e-20
-3.26526e-20
3.77464e-20
-2.11963e-20
4.43619e-21
-2.81802e-20
1.09583e-20
-7.84627e-20
2.23771e-20
-5.97978e-20
-1.10736e-20
-4.72429e-20
2.99157e-20
-4.6946e-20
-6.41955e-20
-4.05405e-20
-1.92089e-20
-2.61778e-20
4.29105e-20
-5.09653e-21
-1.53009e-20
-5.81963e-21
2.06746e-20
-6.78272e-21
5.84652e-20
-3.08802e-20
2.841e-20
-4.88562e-21
6.64916e-21
4.46272e-21
-1.86715e-20
2.85045e-21
7.70086e-21
-7.24102e-21
6.37957e-20
-4.02709e-20
2.73941e-20
4.43456e-20
6.04673e-20
-1.12821e-20
6.49389e-20
-2.19576e-20
4.06949e-20
1.96526e-20
2.91473e-20
-1.00211e-20
4.31995e-20
-5.27941e-20
7.79827e-21
1.18448e-20
2.94429e-20
-3.33664e-20
4.30019e-20
-2.09811e-20
1.32769e-20
-2.46895e-20
-2.62833e-21
-7.90221e-21
-1.72894e-20
-7.0815e-21
-7.39863e-21
1.71489e-22
3.2668e-20
-3.48966e-20
4.52757e-20
6.81766e-20
2.03941e-20
3.17006e-20
1.68158e-20
2.13376e-21
-2.53328e-20
6.90062e-21
-2.99963e-20
1.57487e-20
-3.15589e-20
-1.65928e-20
-5.55457e-21
-5.89503e-20
-1.14537e-20
-1.41837e-21
-5.54284e-20
9.09796e-22
-2.55078e-20
-7.23737e-21
-5.75933e-22
-5.74445e-20
-1.61082e-20
-1.03087e-20
2.44288e-20
-1.38277e-21
2.70542e-20
2.38249e-20
6.93439e-21
1.76962e-20
-2.11341e-20
6.65806e-22
-8.93677e-21
6.1654e-21
-7.80231e-22
-1.69751e-21
-6.71383e-21
1.94931e-21
-9.5612e-21
-2.21437e-20
-3.07508e-20
-2.70975e-20
-4.72294e-20
4.08947e-20
-9.91788e-20
3.38908e-20
-4.55002e-20
4.15997e-21
-5.14585e-20
-5.91338e-21
-5.29399e-20
2.69575e-21
-8.48357e-21
5.53208e-20
-3.09636e-20
2.7397e-20
-4.48098e-20
1.06747e-20
-3.47474e-20
-7.0692e-21
1.2225e-20
3.9791e-20
-2.61392e-20
3.3659e-20
1.8674e-21
1.09203e-20
-2.93215e-20
5.41283e-20
-8.29297e-21
4.92746e-20
-3.42469e-20
5.17051e-20
3.94701e-20
6.21081e-20
-4.2269e-20
4.56279e-20
2.46204e-20
6.16038e-21
1.42976e-20
3.52355e-20
-9.08201e-20
1.25926e-20
-6.75264e-20
1.06236e-20
3.40105e-20
3.48763e-20
-6.12972e-20
1.51469e-20
-2.90046e-20
1.81985e-20
-2.75199e-20
4.53652e-20
1.78199e-21
4.90042e-21
1.37307e-20
1.82113e-20
5.55502e-21
-1.06663e-20
-3.83878e-20
2.55012e-20
3.96533e-21
3.15983e-20
-1.5051e-20
4.34736e-20
-1.99477e-21
1.73127e-20
2.61865e-20
9.8681e-21
-2.65486e-20
4.76981e-21
-1.25259e-20
-3.00226e-20
-1.71003e-20
-2.69562e-20
1.28417e-20
-3.33258e-21
-5.72583e-20
-2.09423e-20
4.07708e-20
-2.7753e-20
-7.77269e-21
-2.94548e-20
2.25244e-20
-2.53797e-20
1.44825e-20
7.20152e-21
1.22773e-20
1.82063e-20
-3.12682e-20
4.697e-20
2.88118e-20
-3.55143e-20
1.27923e-20
-1.58548e-20
-1.33253e-20
-1.06391e-20
2.4376e-20
-3.10177e-20
4.24577e-21
-6.67799e-20
-7.42663e-21
-5.00237e-20
3.43741e-20
-8.37968e-20
3.27052e-20
-9.03589e-20
2.14866e-20
-4.56897e-20
3.18786e-20
-1.22911e-20
-1.95147e-20
2.30304e-20
4.95672e-21
-1.4031e-20
5.5118e-21
-2.38035e-21
-3.40737e-20
-7.96949e-21
2.60862e-20
-2.92254e-21
2.92253e-20
-2.39522e-20
4.03483e-20
4.19368e-20
5.34767e-20
-2.0016e-20
2.98237e-20
5.43157e-21
2.64444e-20
-3.51239e-20
1.98614e-20
-1.45982e-20
2.5604e-20
-7.74897e-20
2.26034e-20
-1.30848e-21
4.5911e-20
-3.78767e-20
1.68273e-20
-4.62111e-20
1.00165e-20
-3.69226e-20
1.38254e-20
2.52156e-20
-6.49588e-22
-1.5808e-20
-8.55931e-21
-3.11257e-20
3.06005e-21
-6.78747e-20
2.2503e-20
3.23646e-20
8.20431e-20
-6.06966e-21
5.51531e-20
3.5784e-20
2.11405e-20
-1.58521e-20
-6.44779e-21
-4.52597e-20
1.20296e-20
-1.74334e-20
2.73675e-20
-1.8613e-20
2.74954e-20
1.24696e-20
7.33955e-21
-9.09903e-21
-3.11758e-20
-9.13413e-21
-3.63339e-20
-9.81364e-22
-3.30368e-20
-5.87104e-21
-4.93565e-20
-3.0728e-20
-1.60431e-20
5.78076e-23
-1.04323e-20
-7.7127e-21
1.98128e-20
-9.04158e-21
1.76165e-20
1.21211e-20
-1.86086e-20
4.46847e-20
5.13029e-21
2.75381e-21
4.58577e-21
-1.02034e-20
-1.02377e-22
1.57346e-20
-2.40375e-20
1.89839e-20
-5.39865e-20
-1.03886e-20
8.96482e-21
-1.80831e-20
-2.37773e-20
2.19762e-20
-6.63112e-20
2.41056e-20
-3.40401e-20
-3.18121e-20
-7.41213e-20
5.05294e-20
-8.26886e-20
2.27309e-20
-5.52435e-20
-5.37117e-20
-1.06633e-20
1.98828e-20
5.78128e-21
-3.02729e-20
-2.10808e-20
-1.02223e-20
-1.31724e-20
-1.22078e-20
-1.62633e-20
1.34587e-20
-2.3323e-20
1.49223e-20
1.42549e-20
1.98696e-20
-8.74586e-21
5.52096e-20
-3.75747e-20
4.53808e-20
-4.38958e-20
4.93389e-20
-3.11239e-21
3.79831e-20
-7.31349e-20
1.30546e-20
-2.18298e-20
5.8297e-20
-4.26146e-20
4.4341e-20
-2.68115e-20
2.69171e-20
-9.18163e-21
7.33617e-21
3.35554e-20
-1.14168e-20
-4.80267e-20
-3.59376e-21
-2.63866e-20
-2.09581e-20
-1.76372e-20
7.0063e-20
1.09531e-20
8.15648e-20
-9.57043e-21
5.94326e-20
1.06533e-20
4.18467e-20
2.97116e-20
1.89391e-20
-6.81696e-20
-2.70013e-20
6.53368e-20
-5.42227e-20
-3.42244e-20
-5.29501e-21
-1.75403e-20
1.621e-21
-3.91841e-20
-4.37687e-21
-3.91279e-21
-1.08064e-20
-8.12889e-21
-7.9196e-20
-7.58107e-21
-2.89451e-20
-4.21037e-20
6.75069e-21
-3.11577e-20
-4.66648e-21
-1.10388e-20
3.23602e-20
2.23821e-20
-3.00495e-21
1.37136e-20
1.70392e-20
3.51257e-20
-2.7092e-20
-1.92802e-20
-3.93853e-20
-1.09525e-20
2.76465e-21
-2.05017e-20
5.51154e-21
3.20847e-20
-6.54902e-20
5.00311e-20
-5.79432e-20
-1.71059e-20
-2.67463e-20
-3.56736e-21
-4.2352e-20
-2.63204e-20
-9.12969e-20
-5.8254e-21
-4.68364e-20
-6.97426e-22
-4.85452e-20
2.12302e-20
-1.28972e-20
-3.61019e-20
-2.95157e-20
4.00698e-20
-2.50778e-20
-2.70764e-20
-4.72364e-20
2.24432e-20
-3.68967e-20
3.08324e-21
-1.8216e-20
3.3577e-20
-2.32827e-20
3.73456e-20
2.67756e-20
1.5596e-20
3.51428e-20
3.67781e-20
-1.20106e-20
2.42796e-20
-8.84141e-21
6.81416e-20
-4.39634e-20
1.40105e-20
-1.72658e-20
1.26141e-21
-3.25478e-20
2.58832e-20
2.97264e-21
6.6776e-20
-4.61566e-20
5.42601e-20
4.96769e-20
3.66122e-20
9.03843e-21
3.57441e-20
-2.94639e-20
-3.91448e-20
-1.24524e-20
-1.86488e-20
-1.41914e-20
6.86973e-20
-3.16831e-20
2.97226e-20
2.94575e-21
3.30208e-20
-2.49422e-20
-8.86571e-22
1.58907e-20
-7.83736e-21
-4.09657e-20
7.98212e-21
4.75505e-20
2.72369e-20
-5.57905e-20
7.98559e-21
1.48463e-20
-4.50896e-20
-1.27958e-20
-3.79828e-20
-3.90298e-20
-1.60561e-20
-1.88574e-20
-4.35331e-20
-2.98092e-21
-4.26217e-20
-6.39139e-20
-1.58264e-20
-2.10877e-20
-1.66256e-20
2.27215e-20
-7.39341e-21
1.47664e-20
2.73147e-20
1.09138e-21
3.53522e-20
-7.83932e-21
-2.02463e-20
-3.76242e-20
-1.35822e-20
-1.97858e-21
1.49689e-20
-9.57516e-21
-2.04465e-20
2.37833e-20
-3.99029e-20
3.3831e-20
-1.92928e-20
-3.92112e-20
-2.50423e-20
3.59781e-20
-5.81783e-20
3.48173e-20
-7.06201e-20
-1.6883e-20
-5.76868e-20
-4.84284e-20
-6.22692e-20
2.40456e-20
-7.50762e-20
-1.61828e-20
-8.46544e-20
5.95139e-20
-3.65648e-20
2.274e-20
-9.44568e-21
-2.10906e-20
-3.37042e-20
1.54805e-21
2.41052e-20
9.81312e-21
-3.40812e-20
9.32323e-21
-7.95909e-21
6.19007e-20
1.12476e-20
4.00109e-20
-1.91035e-20
8.73544e-21
-7.93496e-21
2.43752e-20
-8.06912e-20
4.24328e-20
-9.44035e-21
4.49494e-20
-5.99353e-21
1.55001e-20
8.93104e-21
5.02559e-23
-4.49806e-20
5.28684e-20
-1.31579e-21
8.24829e-21
1.11139e-20
-2.4316e-20
-4.09154e-20
-2.06399e-21
-2.09011e-21
2.78408e-20
-1.89521e-20
8.97587e-21
4.84498e-21
5.99673e-20
-4.76449e-20
6.8973e-20
-1.69878e-20
2.78605e-20
9.18933e-21
-3.25304e-21
-4.41244e-20
2.45165e-20
-3.73194e-20
2.80144e-20
-8.85146e-20
1.15659e-20
-2.19787e-20
1.7127e-20
-3.30068e-20
-4.51007e-20
-1.3375e-20
-4.3542e-20
-5.55013e-20
1.67711e-20
-2.72388e-20
-3.61038e-20
-1.37748e-20
-1.5818e-20
-3.56213e-20
1.87108e-21
-4.08664e-20
7.65743e-21
3.67988e-20
3.7959e-20
-5.22771e-20
2.90582e-20
-2.34983e-20
-1.20762e-20
1.40904e-20
1.97992e-20
-8.43829e-21
-2.75358e-20
1.71135e-20
-4.7575e-20
6.20871e-20
4.28884e-22
5.51778e-21
-1.0805e-20
-4.25424e-20
-4.21042e-20
4.43634e-20
-4.18039e-20
-6.56876e-21
-3.4843e-20
-3.80166e-20
-6.44887e-20
2.15814e-20
-7.92784e-20
1.57519e-20
-5.52465e-20
-1.8905e-20
-3.34547e-20
5.89891e-20
-2.84053e-20
-2.3701e-20
-6.94873e-21
-1.80099e-20
-3.20295e-21
3.41598e-20
5.05372e-21
9.29087e-22
-1.2121e-20
2.68491e-20
-1.31718e-20
3.34148e-20
3.09797e-20
4.62408e-20
7.78189e-22
4.19531e-20
-2.89681e-20
2.20406e-21
-3.30386e-20
4.78839e-20
-1.0724e-20
7.55793e-20
-2.57672e-20
5.41023e-20
2.36596e-20
1.24159e-20
-2.11187e-20
4.01591e-20
1.6353e-20
6.94737e-21
1.1468e-20
1.44386e-20
-4.43847e-20
9.85635e-21
1.05709e-20
2.35381e-20
-4.14301e-21
5.8601e-20
1.94897e-20
2.59743e-20
4.61936e-21
1.36749e-20
-4.56546e-20
3.15457e-20
-3.64155e-20
2.70327e-20
-9.85265e-20
2.25292e-20
-4.06797e-20
-6.55002e-21
-4.64054e-20
-2.22945e-20
-3.93125e-20
-2.47516e-20
-5.05504e-20
9.21533e-21
-4.42534e-20
9.97465e-22
-1.87051e-20
1.4446e-20
7.65467e-22
1.14937e-20
2.5348e-20
-3.63338e-20
-1.38903e-20
-5.61868e-20
5.93075e-21
1.76764e-21
2.2078e-20
2.68023e-20
-6.80608e-20
5.83463e-21
1.31665e-20
3.41504e-20
-2.97693e-20
9.35792e-21
1.75403e-20
-1.11573e-20
4.84994e-20
6.86523e-21
6.61151e-20
-6.98532e-21
-2.62954e-22
-6.39001e-20
-2.8255e-20
-3.13675e-20
-1.11967e-20
-5.87956e-20
-5.32551e-20
-1.01536e-19
-1.80506e-20
-9.06015e-20
-9.29354e-21
-6.18786e-20
-3.94198e-21
-7.0575e-20
-1.64078e-20
7.24438e-21
3.32739e-20
-4.47802e-20
4.16202e-20
-5.00084e-20
-3.28412e-20
-1.0089e-20
1.89373e-21
-3.33945e-20
-1.22708e-20
3.4728e-20
2.7814e-20
-5.95062e-20
2.18447e-20
2.78976e-20
3.37491e-20
-2.56472e-21
4.15337e-20
-9.9806e-21
3.09997e-20
-5.95817e-20
1.709e-20
-1.1575e-20
3.85386e-20
-2.43478e-20
4.93537e-20
5.02286e-20
4.09213e-20
-4.39052e-20
3.67664e-20
5.7669e-21
2.49828e-20
3.8496e-21
-2.03853e-21
-2.82343e-20
-2.88338e-20
1.82521e-21
4.29168e-20
-3.17848e-20
8.72249e-21
1.71648e-20
-1.89797e-20
-1.69288e-20
2.35027e-20
-1.39635e-20
4.68881e-20
-2.11582e-20
5.82056e-21
-4.15795e-20
1.17744e-20
-2.69808e-20
2.20674e-20
-2.28333e-20
-8.91268e-21
-1.16243e-20
-6.84351e-20
5.22388e-21
6.51267e-21
-6.55792e-20
-1.34883e-20
-5.57045e-20
-1.34624e-20
-2.64699e-20
5.13446e-21
-2.08152e-20
2.84796e-20
-2.71615e-20
-4.30695e-21
3.23453e-20
1.79628e-23
-2.20204e-20
-2.37228e-20
5.01694e-21
7.45751e-22
-6.00497e-21
2.78915e-23
-1.71133e-20
-1.70964e-20
3.18944e-20
-2.6197e-20
5.98042e-20
2.63308e-20
-1.77561e-20
-1.65599e-20
-5.49214e-21
-2.95636e-20
-7.8433e-20
-1.08895e-20
-7.76548e-20
-4.71085e-20
-3.82398e-20
-4.26771e-20
-1.77926e-20
-5.32405e-20
-4.7184e-20
-6.91593e-20
1.9274e-20
-9.52653e-20
2.18896e-20
-4.41649e-20
-4.01512e-20
-2.03508e-20
-6.75082e-21
-2.47308e-20
2.03622e-20
-3.60367e-21
-2.07718e-20
2.58858e-20
5.46763e-20
-2.96686e-20
1.21148e-20
-9.12403e-21
3.12585e-20
1.6837e-20
1.383e-20
7.80944e-21
7.73937e-20
-2.0217e-20
4.93067e-20
-5.85435e-20
3.6673e-20
3.60964e-20
3.07201e-20
-1.58199e-20
4.77396e-20
5.27458e-20
-1.3223e-20
2.17511e-20
2.92997e-20
-5.1391e-21
4.81879e-20
-6.22935e-20
1.98843e-20
-2.09778e-20
1.72334e-20
5.20336e-21
1.25052e-20
-4.03326e-21
2.36464e-20
1.15934e-20
3.66156e-20
-4.02617e-20
1.28891e-20
-6.6967e-21
1.46212e-20
1.92743e-20
1.96901e-20
-6.18979e-20
-5.61166e-21
8.33279e-21
-2.77221e-20
-5.20526e-20
-1.34826e-20
-7.39889e-20
-8.71384e-21
1.04061e-20
-1.00487e-20
-3.3267e-20
2.77108e-20
-3.52753e-20
2.55155e-20
3.743e-22
-1.42861e-20
1.1386e-20
-3.15912e-20
-2.06844e-20
3.17662e-20
1.75461e-20
3.26141e-20
-2.07068e-20
-1.2676e-21
5.46897e-21
1.15123e-20
-2.23104e-20
-5.2912e-20
3.87421e-21
-1.39473e-21
-1.92384e-20
7.31495e-21