/*--------------------------------*- C++ -*----------------------------------*\
| =========                 |                                                 |
| \\      /  F ield         | foam-extend: Open Source CFD                    |
|  \\    /   O peration     | Version:     3.2                                |
|   \\  /    A nd           | Web:         http://www.foam-extend.org         |
|    \\/     M anipulation  | For copyright notice see file Copyright         |
\*---------------------------------------------------------------------------*/
FoamFile
{
    version     2.0;
    format      ascii;
    class       volVectorField;
    location    "0.02";
    object      U;
}
// * * * * * * * * * * * * * * * * * * * * * * * * * * * * * * * * * * * * * //

dimensions      [0 1 -1 0 0 0 0];

internalField   nonuniform List<vector> 
2500
(
(1.20075e-22 4.24473e-17 1.78003e-16)
(-1.81174e-22 3.54111e-17 -6.33439e-17)
(6.04969e-23 4.20843e-17 9.42074e-17)
(1.2109e-22 3.38685e-17 -1.50593e-17)
(0 -1.39126e-17 4.21936e-17)
(0 2.2227e-17 6.35073e-18)
(0 3.18089e-17 6.13536e-17)
(0 -1.24769e-17 -1.76363e-17)
(0 -4.21287e-17 1.10167e-17)
(0 5.5963e-18 -1.51089e-18)
(-1.34633e-38 5.08001e-17 2.23347e-17)
(-1.21276e-22 -2.01303e-17 -8.83955e-18)
(9.09638e-23 3.96243e-17 4.80757e-18)
(6.06465e-23 -9.50445e-18 -1.40457e-17)
(-3.0325e-23 -3.4763e-17 -1.91759e-17)
(-1.21307e-22 -5.93431e-18 3.75364e-17)
(1.21313e-22 2.45723e-17 2.53619e-17)
(0 5.75681e-17 -1.57351e-17)
(0 1.8485e-17 -1.00797e-17)
(3.03325e-23 2.47568e-17 -1.11793e-17)
(-3.03337e-23 -2.86712e-17 1.96417e-17)
(0 -8.45696e-18 9.78892e-18)
(1.51681e-22 9.24762e-18 1.87899e-17)
(-1.34724e-38 4.1314e-17 9.58391e-18)
(-1.51692e-22 -3.06185e-17 -2.2329e-17)
(-6.06787e-23 3.19708e-17 2.94476e-17)
(-3.03403e-23 2.7081e-17 -3.81108e-17)
(-3.03412e-23 3.91928e-17 -2.3036e-17)
(3.03421e-23 -4.728e-17 -8.83846e-18)
(-1.3475e-38 -1.12665e-18 2.63292e-17)
(3.03437e-23 2.18319e-17 -1.2693e-17)
(1.51722e-23 4.88281e-17 -6.50968e-18)
(0 -2.04965e-17 -9.69164e-18)
(-7.58642e-23 -3.10669e-17 1.10066e-18)
(0 -4.7804e-17 -1.59813e-17)
(0 1.23985e-17 2.6657e-17)
(6.06943e-23 -1.94602e-17 -1.83094e-17)
(-6.06951e-23 1.93725e-17 -1.55569e-18)
(-6.06957e-23 5.53794e-17 8.57278e-19)
(-6.06963e-23 2.11194e-17 -5.70482e-17)
(7.58709e-24 -2.99159e-17 -1.46268e-17)
(-7.58713e-24 9.80916e-18 -2.9915e-18)
(-3.03486e-23 1.15939e-17 -2.48983e-17)
(3.03486e-23 3.46754e-17 -2.1116e-18)
(0 4.51683e-17 -1.01432e-17)
(-3.79355e-24 7.39571e-17 -4.15157e-17)
(3.79352e-24 1.93503e-17 1.48461e-18)
(-1.51739e-23 -9.79295e-18 -6.54063e-17)
(0 -1.12372e-17 8.92175e-17)
(0 8.96068e-17 -1.49905e-16)
(0 -1.48304e-17 1.95235e-16)
(-4.55151e-22 -4.63105e-17 -6.56631e-17)
(-1.01079e-38 9.38813e-18 8.05102e-17)
(-1.66977e-22 -6.85949e-17 4.15624e-17)
(3.03684e-23 9.10886e-18 1.41304e-17)
(-4.55627e-23 -3.99888e-17 6.17272e-18)
(0 8.44973e-18 -9.88809e-18)
(-7.59599e-24 2.58641e-17 5.53825e-17)
(-7.59675e-24 8.10916e-18 2.81407e-17)
(-3.03895e-23 -1.98464e-17 8.34505e-18)
(-5.31852e-23 -1.98699e-17 -1.04147e-17)
(6.07865e-23 -9.20582e-18 6.97474e-18)
(7.59868e-24 -3.99474e-17 2.92487e-18)
(-1.5198e-23 6.2807e-17 6.7416e-18)
(1.51986e-23 -3.29988e-17 2.17753e-17)
(4.55973e-23 -4.24097e-17 -2.15552e-17)
(-4.55986e-23 7.0055e-18 -2.3316e-17)
(-1.216e-22 -2.90488e-17 -1.9983e-17)
(-7.60016e-24 -8.24647e-18 1.04704e-17)
(-6.08027e-23 -3.66958e-17 1.96461e-17)
(-6.0804e-23 -1.99833e-18 -6.79119e-18)
(7.60065e-24 9.84783e-18 -1.75053e-18)
(-6.08063e-23 8.28923e-18 6.78884e-18)
(4.56055e-23 -3.24143e-17 -4.5657e-18)
(7.60105e-23 2.31676e-17 3.32711e-18)
(5.32082e-23 -1.63001e-17 -6.96643e-18)
(0 3.988e-17 1.03967e-17)
(6.08112e-23 -9.13954e-17 1.03424e-17)
(-6.0812e-23 1.05326e-17 1.47862e-17)
(0 4.59087e-17 -7.13489e-17)
(-6.08136e-23 -9.2419e-18 -6.48831e-18)
(-6.08144e-23 -2.73569e-17 -1.42241e-17)
(-6.08151e-23 -5.66401e-19 3.24381e-17)
(-7.60198e-24 4.55613e-17 7.26127e-18)
(1.688e-39 1.15978e-17 -2.14193e-18)
(5.06404e-39 -1.52793e-17 3.83534e-18)
(-6.08176e-23 4.71723e-17 -4.03752e-17)
(-6.08182e-23 -4.11622e-17 1.23652e-17)
(7.60233e-24 2.72039e-17 -1.73771e-17)
(6.08191e-23 3.95908e-18 2.3421e-17)
(6.08194e-23 -2.70259e-17 -9.86646e-18)
(-7.60246e-24 -2.89988e-18 -2.45309e-18)
(7.60248e-24 8.85733e-18 -2.92655e-17)
(-3.80124e-24 -8.04112e-18 -3.34012e-17)
(3.80124e-24 -1.68803e-17 -2.55413e-17)
(3.04098e-23 -4.57616e-17 -3.08698e-17)
(0 -4.39635e-17 1.5241e-17)
(1.52047e-23 8.24124e-18 -8.49793e-17)
(-9.5028e-25 2.34402e-17 7.27081e-17)
(9.48699e-25 -3.74867e-17 -1.56942e-16)
(-4.85567e-22 3.72663e-18 2.67048e-16)
(4.85985e-22 2.33921e-17 -7.16311e-17)
(-2.42942e-22 2.40021e-17 9.31466e-17)
(1.36665e-22 2.09683e-18 1.5998e-17)
(1.06311e-22 1.77725e-17 3.28636e-18)
(3.03787e-23 4.94242e-18 -9.83237e-18)
(0 -1.86423e-17 7.01336e-19)
(7.59638e-24 -8.56115e-18 2.5246e-17)
(-7.62671e-24 -1.70079e-17 -1.25272e-17)
(3.79879e-23 8.83149e-17 2.97894e-17)
(-7.59804e-24 3.06181e-18 -1.53808e-17)
(7.59843e-24 -1.21584e-17 2.39867e-17)
(3.79939e-23 3.86605e-17 2.17467e-18)
(-9.8788e-23 -5.5861e-17 2.17476e-18)
(0 -1.79959e-17 3.57526e-17)
(-7.59959e-24 1.4488e-17 -8.5863e-18)
(-5.31987e-23 1.18194e-17 -7.87132e-18)
(6.84001e-23 3.93958e-18 7.27795e-18)
(-6.08015e-23 9.60184e-18 2.50134e-17)
(5.32025e-23 7.01277e-18 -8.43997e-18)
(6.08041e-23 1.26343e-17 1.66783e-17)
(6.08053e-23 4.41634e-17 -5.09608e-18)
(0 -2.71432e-17 9.05135e-18)
(-6.08074e-23 3.34668e-17 -5.49416e-18)
(6.08084e-23 -3.91336e-17 -5.0455e-17)
(-6.08094e-23 7.23018e-17 -2.09457e-17)
(0 -3.88877e-17 5.17367e-17)
(0 -2.3308e-18 -1.42191e-17)
(6.84134e-23 9.33776e-18 -2.44753e-17)
(-6.84143e-23 -6.96453e-18 -8.37671e-18)
(6.84152e-23 1.58694e-17 1.66298e-17)
(6.08142e-23 2.6341e-18 -3.16737e-17)
(-7.60186e-24 -4.12442e-17 -9.35925e-20)
(1.21631e-22 -1.24394e-17 6.1458e-18)
(0 -5.21753e-17 1.61611e-17)
(7.6021e-24 6.62861e-17 -2.53742e-18)
(5.32151e-23 -2.51905e-17 4.70261e-17)
(6.842e-23 -2.27427e-17 -2.33711e-17)
(6.08182e-23 1.67489e-17 -1.33937e-17)
(-3.37611e-39 6.93917e-18 -3.55501e-18)
(-6.84213e-23 4.5618e-17 9.30408e-18)
(3.8012e-24 -6.52067e-18 -3.7588e-17)
(-3.80121e-24 2.42494e-17 -2.57598e-17)
(0 3.36026e-17 -5.84387e-17)
(0 2.22531e-17 -1.21039e-17)
(-3.42108e-23 5.91754e-17 -2.92973e-17)
(3.80118e-24 1.24201e-17 9.3904e-19)
(0 -2.14697e-17 -8.2715e-17)
(9.5028e-25 3.35717e-17 1.08133e-16)
(2.94097e-23 1.89513e-17 -1.58059e-16)
(4.85663e-22 -3.58045e-18 1.58296e-16)
(0 2.47352e-17 -9.25537e-17)
(2.4305e-22 -8.31874e-18 1.5583e-16)
(0 -4.20554e-17 -1.88408e-17)
(-1.06333e-22 2.63699e-17 5.96742e-17)
(-1.51915e-23 -5.09579e-17 1.95962e-17)
(-5.31743e-23 -1.2317e-17 -2.48467e-17)
(0 2.6434e-17 5.09055e-17)
(-1.51651e-23 -1.1447e-17 -3.29424e-17)
(5.69839e-24 -2.24161e-17 3.69536e-17)
(0 -1.5164e-17 -1.58506e-18)
(-1.51972e-23 -1.0618e-18 3.52985e-17)
(-3.03956e-23 -2.48402e-17 -6.62744e-17)
(3.03967e-23 4.47765e-17 2.85653e-17)
(0 -4.72669e-17 -2.74757e-17)
(0 1.04609e-18 6.00684e-18)
(9.87983e-23 1.63049e-17 -1.54773e-17)
(-7.60005e-24 3.65152e-18 1.86855e-17)
(6.08018e-23 2.52454e-17 2.62086e-18)
(0 -1.60617e-17 1.40213e-17)
(-7.60054e-24 1.60516e-17 1.1299e-17)
(-5.32048e-23 2.63315e-17 5.26159e-18)
(-6.84073e-23 1.53016e-17 9.20383e-18)
(7.60094e-24 -2.06719e-17 -4.85444e-17)
(-6.08085e-23 1.06111e-17 2.07286e-17)
(0 -9.32114e-17 -1.43116e-17)
(0 8.09361e-18 -1.20385e-17)
(-5.32097e-23 7.1766e-18 8.6765e-18)
(-6.84134e-23 2.70895e-17 -1.62922e-17)
(0 8.56462e-18 7.28521e-18)
(0 -1.35427e-17 1.16041e-17)
(-7.60176e-24 -7.00276e-20 9.70934e-18)
(1.52037e-23 -2.44682e-17 1.51968e-20)
(-6.08154e-23 7.89647e-17 -1.64886e-17)
(-7.60199e-24 3.12619e-17 -1.91869e-17)
(0 -1.07374e-17 3.68966e-18)
(-2.70082e-38 5.07249e-17 8.01158e-19)
(0 9.54836e-19 -2.24203e-17)
(-6.08179e-23 3.8645e-17 2.13527e-18)
(-3.04091e-23 -2.91763e-17 1.13964e-17)
(0 -1.89435e-17 1.54033e-17)
(3.80117e-24 3.54363e-17 -2.34319e-17)
(2.66083e-23 2.75573e-17 -1.97299e-17)
(0 -2.57082e-17 -5.74876e-17)
(0 -4.97335e-17 -1.26836e-17)
(3.04094e-23 -1.923e-17 -6.30524e-17)
(0 -1.8022e-17 1.70105e-17)
(0 -1.36285e-17 -7.56672e-17)
(0 3.65829e-17 5.234e-17)
(-3.03585e-23 -9.34907e-18 -1.41645e-16)
(-2.42853e-22 4.40143e-17 1.85494e-16)
(-7.59912e-24 -4.49904e-17 -7.13012e-17)
(7.59746e-24 -3.72918e-19 1.12794e-16)
(-2.43095e-22 -2.09826e-17 -1.27684e-17)
(7.59658e-24 -7.64383e-18 3.20308e-17)
(-7.59676e-24 5.47587e-17 3.30278e-17)
(6.07766e-23 -4.73806e-18 1.19234e-17)
(0 -3.43732e-17 2.94641e-17)
(-3.03913e-23 6.91893e-19 3.8426e-17)
(9.49771e-24 2.51382e-18 -1.37472e-18)
(-9.49812e-24 7.6106e-18 -1.067e-17)
(1.51976e-23 -5.75308e-18 -3.53918e-18)
(7.59907e-24 4.2231e-17 -2.81122e-17)
(1.51986e-23 -4.05119e-17 3.68929e-17)
(-3.79977e-23 2.51972e-17 -3.61531e-17)
(-3.0399e-23 -2.71433e-19 -4.35237e-18)
(-6.07995e-23 -2.04437e-18 3.07448e-18)
(0 -9.87899e-18 2.67101e-17)
(0 4.20974e-17 2.82226e-17)
(0 3.19186e-17 1.79766e-17)
(0 3.25019e-17 1.62319e-17)
(0 7.63119e-18 -3.55367e-18)
(1.29214e-22 2.25529e-17 2.95639e-17)
(-1.52019e-23 -2.78176e-17 -4.31411e-17)
(7.60107e-24 2.63266e-18 -1.00469e-17)
(-7.60118e-24 6.11645e-17 -9.57488e-18)
(3.37565e-39 9.6113e-18 3.84686e-17)
(6.84125e-23 -3.98953e-17 -2.51856e-17)
(2.70059e-38 4.07546e-17 -2.2111e-17)
(0 -2.04057e-18 2.75983e-17)
(-5.32116e-23 -1.23204e-17 -1.20021e-17)
(-7.60174e-24 9.92262e-18 -3.94132e-18)
(1.21629e-22 1.75317e-17 1.50511e-17)
(0 -1.67156e-17 -3.24701e-17)
(0 -2.24698e-17 3.40548e-17)
(-7.60203e-24 -4.94076e-18 -3.50765e-17)
(-4.56126e-23 -2.53196e-17 -3.10782e-17)
(6.08172e-23 -1.1284e-18 3.83175e-17)
(2.28066e-23 -5.35327e-17 -1.29996e-18)
(3.0409e-23 5.94565e-18 1.82673e-18)
(0 4.02847e-17 -2.05779e-17)
(0 2.65199e-17 -5.33349e-17)
(-2.66081e-23 -7.95928e-18 7.23387e-18)
(-3.80116e-24 2.72229e-17 -3.77707e-17)
(-3.42105e-23 -5.36294e-18 -2.42252e-17)
(-2.66081e-23 4.61772e-17 -6.86678e-17)
(-3.04092e-23 -3.78914e-18 -4.20659e-18)
(0 2.65018e-18 -1.13349e-16)
(-3.04089e-23 3.38302e-17 6.22784e-17)
(0 -3.7787e-18 -1.39164e-16)
(3.79475e-24 -3.04685e-17 2.70886e-16)
(-3.8001e-24 1.49346e-17 -9.50564e-17)
(0 1.24089e-17 8.21965e-17)
(4.86276e-22 9.45649e-18 -4.8187e-19)
(-7.59772e-24 1.674e-18 5.33468e-17)
(1.51953e-23 -5.60436e-17 2.29056e-17)
(-7.59779e-24 2.22495e-17 2.05181e-17)
(0 1.93739e-18 4.98229e-17)
(6.0786e-23 2.33744e-17 2.10064e-17)
(3.0394e-23 -1.76186e-17 2.99772e-17)
(9.49846e-24 -5.00433e-17 5.6932e-18)
(-8.54889e-24 9.23719e-18 1.98001e-18)
(-7.59924e-24 -3.92521e-17 -7.93818e-18)
(-7.59946e-24 4.65221e-17 -3.13281e-17)
(3.79983e-23 -3.61096e-17 5.62628e-18)
(3.03994e-23 1.0243e-17 -2.95669e-18)
(3.80001e-23 3.35965e-18 2.4678e-17)
(-7.60019e-24 -1.18336e-17 -1.84047e-17)
(7.60034e-24 -1.01408e-17 1.09511e-17)
(-1.5201e-23 -1.27449e-17 2.62954e-17)
(6.7507e-39 -2.69915e-17 2.43398e-17)
(-2.28022e-23 1.84053e-19 -1.32421e-17)
(-3.04035e-23 6.01028e-18 -1.38482e-18)
(0 2.23374e-18 -2.83939e-17)
(0 6.13991e-18 -1.90145e-17)
(7.60119e-24 -6.50316e-17 1.20437e-17)
(6.08104e-23 4.99008e-17 1.36407e-17)
(-7.60139e-24 4.12499e-17 2.26095e-17)
(6.08119e-23 5.7593e-18 -2.17328e-17)
(7.60157e-24 -8.92498e-18 3.33068e-18)
(-7.60165e-24 1.74773e-17 -5.76307e-18)
(0 -1.7235e-17 -3.63377e-17)
(-6.84163e-23 1.52454e-17 1.94433e-17)
(1.68796e-39 2.06603e-17 -3.61766e-18)
(-4.56117e-23 1.63122e-18 -1.06657e-19)
(-7.60201e-24 2.04439e-17 -1.47123e-17)
(-3.80103e-24 -1.19695e-17 2.1624e-17)
(-8.74243e-23 7.43011e-18 -2.05849e-17)
(6.08173e-23 6.50594e-17 1.12631e-18)
(0 -1.69472e-17 -4.24917e-18)
(-3.80112e-24 1.14102e-18 -4.30113e-17)
(3.80113e-24 -3.04976e-17 -1.6048e-17)
(2.6608e-23 -1.31907e-17 -1.67087e-17)
(-8.44024e-40 -7.0166e-18 -2.79454e-17)
(3.80115e-24 -2.47504e-17 -3.92673e-17)
(0 3.33427e-18 -4.52647e-17)
(3.04091e-23 5.53343e-18 3.85625e-17)
(-3.0409e-23 -2.31016e-18 -7.40366e-17)
(3.04089e-23 -8.51368e-17 7.74794e-17)
(0 -1.14742e-18 -1.67573e-16)
(2.4287e-22 -4.21069e-18 2.15338e-16)
(-2.43228e-22 1.67344e-17 -1.15393e-16)
(-2.43193e-22 -2.5139e-17 1.13852e-16)
(-3.72353e-22 -4.55942e-17 -1.49734e-17)
(7.59863e-24 2.3365e-17 6.29249e-17)
(-1.29174e-22 1.56509e-18 5.0006e-18)
(1.51969e-23 2.48319e-17 2.54354e-17)
(-7.59853e-24 -3.45249e-17 4.15854e-17)
(-3.03947e-23 -1.86037e-17 -2.57752e-17)
(-3.79943e-23 -3.48124e-17 2.08523e-17)
(1.51981e-23 4.08605e-17 2.11868e-18)
(-1.42486e-23 7.23814e-18 1.64449e-17)
(8.54936e-24 4.17484e-17 -4.67077e-18)
(-7.59962e-24 -1.50453e-17 1.6961e-17)
(0 6.73009e-19 8.20529e-18)
(0 -2.3273e-17 7.95377e-18)
(0 2.82786e-17 7.2692e-18)
(2.28008e-23 5.40291e-17 6.34011e-18)
(1.52008e-23 3.12055e-17 -3.77236e-18)
(3.04022e-23 -3.51164e-17 2.4908e-17)
(-1.52013e-23 7.96404e-17 4.4618e-18)
(3.80039e-23 -1.61408e-17 -2.6607e-17)
(-3.04036e-23 6.33255e-18 -5.40414e-19)
(2.2803e-23 3.36781e-17 -1.49624e-17)
(-2.28033e-23 2.23985e-17 4.17769e-17)
(0 -6.6567e-18 -3.63992e-17)
(-3.80065e-23 1.80612e-17 2.08618e-17)
(1.52028e-23 -3.86047e-18 -2.9523e-17)
(5.32104e-23 5.65754e-17 5.54227e-17)
(-7.60157e-24 -2.06726e-17 -3.62189e-17)
(6.84148e-23 5.72512e-17 -2.17913e-17)
(0 1.04719e-17 1.32183e-17)
(-7.6018e-24 1.08978e-17 -2.43265e-17)
(7.60186e-24 1.93835e-17 1.73489e-17)
(9.50241e-23 8.3068e-18 -2.90293e-17)
(-3.80099e-23 2.67727e-17 -8.09749e-18)
(-2.66071e-23 -3.52017e-17 -1.58024e-17)
(5.70157e-23 3.3146e-17 -1.18137e-17)
(-5.32149e-23 -4.74139e-17 -1.49755e-17)
(2.28065e-23 -1.08946e-17 6.16029e-17)
(7.60221e-24 5.5689e-18 -4.23436e-17)
(2.66078e-23 -4.38062e-17 -1.89062e-17)
(-3.0409e-23 5.19145e-17 -6.24951e-17)
(3.04091e-23 -2.73451e-18 8.58569e-18)
(3.04091e-23 1.33526e-17 -8.2223e-17)
(0 -2.36024e-17 -2.34422e-17)
(3.23096e-23 3.92985e-18 -1.59617e-17)
(2.85084e-23 -3.56712e-18 -5.15691e-17)
(0 5.38174e-17 6.38781e-17)
(0 -5.92141e-18 -1.46613e-16)
(2.42873e-22 -2.48186e-17 1.9158e-16)
(-5.40105e-38 1.11989e-17 -9.24804e-17)
(3.6102e-22 -1.70374e-17 1.29356e-16)
(1.17796e-22 8.49816e-18 -5.73963e-17)
(1.29189e-22 1.07605e-17 3.8228e-17)
(-5.39949e-38 -7.13232e-18 -7.92768e-18)
(6.0792e-23 -4.80985e-18 2.8362e-17)
(-7.59901e-24 -1.1147e-17 2.2962e-17)
(7.59908e-24 -9.0027e-18 -1.22059e-17)
(0 3.96879e-18 2.01976e-17)
(-3.03973e-23 -4.11726e-17 4.20666e-17)
(-1.5199e-23 3.32266e-17 2.506e-17)
(-9.49954e-25 4.87419e-18 -1.52958e-17)
(3.79989e-24 6.81938e-18 3.45564e-17)
(0 -1.33627e-17 1.91719e-17)
(0 3.447e-17 1.24523e-17)
(0 -1.23296e-17 -1.2142e-17)
(-1.35009e-38 -2.95095e-17 -8.41059e-18)
(0 1.74141e-17 3.08188e-17)
(-3.04024e-23 3.65875e-17 -3.76318e-18)
(0 -1.48334e-18 1.92766e-17)
(7.60083e-24 -1.58891e-17 -1.11011e-17)
(-7.60094e-24 -1.60449e-17 1.50357e-17)
(-3.80052e-23 3.15232e-18 -3.97768e-17)
(4.56068e-23 9.90103e-18 2.95218e-17)
(2.28037e-23 2.36488e-17 1.91217e-17)
(-6.08106e-23 1.078e-17 -8.48317e-18)
(0 -2.98183e-17 -2.8245e-17)
(-6.08119e-23 1.45228e-17 -1.12388e-17)
(3.80078e-24 2.76315e-18 -8.85018e-18)
(-3.04066e-23 2.59505e-17 -1.85693e-17)
(-8.4396e-40 -2.1081e-17 1.66994e-18)
(-8.43968e-40 3.15771e-17 -6.19258e-18)
(-7.60185e-24 3.06682e-17 -1.05252e-17)
(-2.66067e-23 1.80047e-17 -5.32813e-18)
(3.04079e-23 -1.91266e-17 5.18451e-18)
(3.42091e-23 -1.17267e-17 -3.66702e-17)
(-7.60207e-24 -3.16753e-18 1.63993e-17)
(6.46179e-23 4.82282e-18 -2.21446e-17)
(-3.04086e-23 2.10185e-17 6.92943e-18)
(3.04087e-23 1.53247e-17 -3.14386e-17)
(-3.42099e-23 -5.13679e-18 -1.70482e-17)
(3.80111e-24 -1.04126e-17 -5.06638e-17)
(-3.0409e-23 -3.25934e-17 8.20384e-18)
(2.85084e-23 1.89996e-17 -1.86978e-18)
(-2.85085e-23 3.57736e-18 -2.7641e-17)
(-3.0409e-23 -2.17419e-17 -2.89519e-17)
(-9.50281e-25 -1.18926e-17 -9.06946e-17)
(9.5028e-25 -3.74773e-17 7.65089e-17)
(0 3.03798e-17 -1.56022e-16)
(-2.40978e-22 2.77878e-17 1.65299e-16)
(2.3755e-22 -1.74871e-17 -8.16239e-17)
(-1.17814e-22 -4.14319e-18 1.23724e-16)
(3.80015e-24 -1.34629e-17 -2.02752e-17)
(-1.25398e-22 3.49835e-17 6.50116e-17)
(1.29194e-22 -2.8158e-17 2.49516e-17)
(-6.07959e-23 -1.3867e-17 7.97164e-19)
(-7.59944e-24 8.11982e-18 2.48853e-17)
(0 -4.70754e-18 -6.64117e-18)
(3.0398e-23 -4.56266e-17 6.41819e-17)
(0 5.95462e-18 -2.24891e-17)
(1.51994e-23 8.15022e-18 1.08603e-17)
(-7.59983e-24 9.7684e-18 7.74706e-18)
(1.13999e-23 9.35318e-18 7.7244e-18)
(-7.60007e-24 -3.00431e-17 1.02962e-17)
(-7.6002e-24 -1.03919e-17 -2.1479e-17)
(-1.52006e-23 3.94132e-17 3.08851e-17)
(-1.52009e-23 2.93664e-17 -2.93395e-17)
(0 -7.03681e-18 1.22251e-17)
(-3.04027e-23 -3.27886e-17 -2.44196e-18)
(0 3.16823e-17 4.22325e-17)
(0 1.36241e-17 -4.11021e-17)
(-3.80049e-24 9.76648e-18 3.10982e-18)
(1.68778e-39 1.49663e-17 1.64623e-18)
(3.80058e-23 1.8053e-17 1.57665e-17)
(-6.081e-23 1.80601e-17 3.80016e-18)
(2.66047e-23 1.55093e-17 -2.06651e-18)
(-3.80071e-24 2.38796e-18 5.10898e-19)
(0 -1.5942e-17 -3.58099e-17)
(3.80079e-24 3.43977e-17 3.36501e-17)
(2.66058e-23 -5.28276e-18 -1.12964e-17)
(-2.6606e-23 1.02876e-17 -1.65862e-17)
(-3.80089e-24 6.92101e-18 -4.375e-17)
(3.80092e-24 3.25119e-17 -3.89457e-18)
(0 2.94829e-18 2.28621e-17)
(3.04078e-23 5.80344e-17 1.37888e-17)
(0 -5.29641e-17 3.04545e-17)
(-3.04082e-23 2.86836e-18 -2.36078e-17)
(-3.04084e-23 -7.69504e-18 1.28312e-17)
(0 -5.31914e-17 -9.64658e-18)
(0 -2.31638e-17 4.56563e-18)
(0 -1.97311e-17 -3.31099e-17)
(-3.8011e-24 -1.92647e-17 -1.79979e-17)
(3.80111e-24 3.23361e-19 -2.35963e-17)
(-3.04089e-23 -3.76989e-17 -4.21658e-17)
(3.0409e-23 1.41792e-17 -5.65034e-17)
(0 7.22348e-18 -1.40164e-17)
(3.0409e-23 -2.82271e-17 -6.40674e-17)
(-4.7514e-25 6.81878e-17 5.28376e-17)
(4.74355e-25 -4.21321e-17 -1.61742e-16)
(0 -7.93229e-17 1.61274e-16)
(1.19728e-22 -3.59015e-17 -6.49974e-17)
(1.9003e-24 2.51386e-17 9.82372e-17)
(0 -2.61512e-17 -3.5496e-17)
(-1.21605e-22 -1.98968e-17 6.89143e-17)
(1.21601e-22 2.54865e-17 -4.99598e-18)
(3.79995e-24 2.76909e-18 1.67116e-17)
(-3.79991e-24 -4.97226e-18 -1.3562e-17)
(-6.07983e-23 1.85726e-17 5.21881e-17)
(-3.03992e-23 2.99026e-17 2.95912e-17)
(6.07989e-23 -5.56277e-18 -4.86242e-18)
(-1.51999e-23 -1.58827e-17 -1.89892e-18)
(-1.52e-23 7.35948e-18 9.88223e-18)
(3.80006e-24 1.64334e-17 2.78256e-18)
(3.80011e-24 1.47031e-17 7.46505e-18)
(3.80016e-24 -1.06343e-17 -1.3816e-17)
(1.14006e-23 -3.31285e-17 -8.36781e-18)
(-6.75063e-39 3.41428e-17 2.13205e-17)
(3.80032e-24 -1.1334e-17 5.85413e-17)
(4.56044e-23 -8.39464e-19 3.14722e-17)
(0 -2.22462e-17 -2.06206e-17)
(-3.04037e-23 4.62594e-18 1.3412e-17)
(-3.04041e-23 -2.60704e-17 -2.57386e-17)
(3.04044e-23 -1.23541e-18 -1.56078e-17)
(-6.08096e-23 -4.04448e-20 7.47299e-18)
(2.66045e-23 3.62299e-17 -9.67432e-19)
(7.60136e-24 8.96483e-18 1.71433e-17)
(-3.80072e-24 1.39186e-17 2.22445e-17)
(0 1.51828e-17 -4.77313e-19)
(-3.04063e-23 -1.44498e-19 -7.05106e-18)
(0 6.18578e-17 -3.8128e-18)
(3.80086e-24 -1.36109e-17 1.11382e-17)
(-3.80089e-24 5.16005e-19 -4.09709e-17)
(0 -9.9501e-18 -8.29599e-18)
(3.80095e-24 -2.74685e-17 -2.35186e-17)
(-3.80097e-24 1.22064e-17 -4.21343e-17)
(3.801e-24 3.08953e-17 2.91806e-17)
(-7.60204e-24 1.55142e-17 -2.34109e-18)
(3.80104e-24 2.01487e-17 -4.77284e-18)
(3.80106e-24 1.20251e-17 -8.70966e-18)
(-3.42096e-23 2.42133e-17 -3.93905e-17)
(0 3.48248e-18 -3.08273e-18)
(3.8011e-24 3.07827e-18 -1.88019e-17)
(-3.80111e-24 -2.87516e-17 -2.98614e-17)
(0 3.09628e-17 -4.27529e-17)
(-1.90056e-24 -4.62355e-17 -4.94467e-17)
(1.90056e-24 -2.01651e-17 -3.64306e-18)
(-3.0409e-23 -8.48506e-18 -7.96953e-17)
(0 -4.48695e-17 1.05943e-16)
(-3.03588e-23 4.2455e-17 -1.6042e-16)
(0 2.0772e-17 1.3867e-16)
(-2.41362e-22 4.31444e-17 -1.02176e-16)
(-1.90036e-24 1.91851e-19 1.39011e-16)
(0 -2.49929e-18 -4.71408e-18)
(0 -4.15724e-18 5.63211e-17)
(-1.21607e-22 -1.61414e-17 5.46434e-18)
(0 -1.09183e-17 1.83113e-17)
(3.80007e-24 -9.15116e-18 1.90117e-17)
(-7.60009e-24 -1.76968e-17 1.72097e-17)
(7.60007e-24 3.86716e-18 1.34388e-17)
(-6.84009e-23 -2.93322e-18 3.72037e-17)
(2.28004e-23 -6.35533e-18 -5.45043e-19)
(1.14003e-23 -2.93478e-17 2.14957e-17)
(-3.80014e-24 2.44594e-17 -1.48584e-17)
(-3.80018e-24 -3.25619e-18 2.46784e-17)
(-8.43819e-40 -1.38969e-17 2.30482e-17)
(-3.80027e-24 -1.41381e-17 -1.64763e-17)
(-2.66022e-23 -4.61705e-17 6.69622e-18)
(3.80036e-24 -9.11527e-18 -2.43582e-17)
(-3.42036e-23 7.85726e-18 3.48704e-17)
(0 2.83778e-17 2.68653e-17)
(6.08079e-23 -2.16083e-17 1.20654e-17)
(3.42048e-23 2.0092e-17 -1.79349e-17)
(-3.42052e-23 1.39687e-17 6.63587e-18)
(3.80061e-24 1.25234e-17 -2.34478e-17)
(-3.80065e-24 1.2581e-17 2.7476e-17)
(0 -1.09952e-17 3.202e-18)
(2.66051e-23 8.94122e-18 -1.13134e-17)
(3.80076e-24 2.04496e-17 -1.55381e-17)
(6.08127e-23 2.12279e-17 -4.4097e-19)
(-3.42075e-23 1.10188e-18 -1.1563e-17)
(3.42077e-23 -3.56519e-17 3.87862e-17)
(-3.04071e-23 2.62271e-18 1.60218e-17)
(3.80092e-24 1.11667e-17 2.92255e-18)
(-3.80094e-24 5.81047e-17 -4.82549e-18)
(-3.04077e-23 -3.82456e-17 -5.77081e-17)
(3.80099e-24 -3.33328e-17 -1.53107e-17)
(-3.80101e-24 1.07316e-17 4.42465e-18)
(3.04083e-23 2.54723e-17 3.49976e-17)
(-3.04084e-23 -1.34514e-17 -1.579e-17)
(0 -2.20808e-17 5.04744e-18)
(3.80108e-24 -4.04011e-17 -3.32389e-17)
(-1.90055e-24 1.72539e-17 -3.37659e-17)
(2.66077e-23 1.91726e-17 -7.08676e-17)
(3.23094e-23 1.90467e-17 3.04113e-17)
(0 -1.36579e-17 -6.32611e-17)
(-9.5028e-25 -3.30866e-17 4.41091e-17)
(9.50281e-25 3.17797e-17 -1.04544e-16)
(4.75141e-25 6.46539e-18 1.13282e-16)
(2.98845e-23 -1.44339e-17 -1.83299e-16)
(-9.48742e-25 2.50892e-18 1.64187e-16)
(1.22583e-22 -2.62601e-17 -6.44602e-17)
(0 -3.12122e-17 1.11477e-16)
(-3.80063e-24 -2.27857e-17 -2.74792e-17)
(2.47031e-22 -4.41343e-18 5.53656e-17)
(0 5.06028e-18 2.33693e-18)
(0 -5.73986e-17 3.97568e-17)
(0 4.41188e-17 -3.12119e-17)
(1.35009e-38 -2.30478e-17 1.95125e-17)
(3.80016e-24 8.41717e-18 3.44073e-17)
(2.66011e-23 -1.8601e-17 2.58868e-17)
(0 -2.59858e-18 3.14049e-17)
(0 1.06072e-17 2.22567e-17)
(0 -2.4345e-17 -2.99217e-17)
(3.80025e-24 6.55592e-19 4.32609e-17)
(3.80028e-24 4.42153e-17 -5.06712e-18)
(-3.80032e-24 -2.69212e-17 2.20436e-17)
(1.52014e-23 1.66196e-17 -1.37477e-17)
(1.9002e-23 7.52544e-18 2.64791e-17)
(2.66031e-23 -2.61985e-17 6.05929e-18)
(-1.52019e-23 -2.94637e-17 -1.30342e-17)
(-1.14016e-23 3.73706e-17 9.20176e-18)
(-3.80056e-24 5.15283e-18 4.25754e-18)
(3.04048e-23 1.91166e-17 2.51976e-17)
(3.04051e-23 -1.2312e-17 1.30027e-17)
(0 -6.1746e-18 1.76138e-17)
(-3.04056e-23 1.76576e-17 -1.16684e-19)
(-3.04059e-23 -2.16493e-17 -6.68152e-18)
(0 2.52358e-17 -2.29559e-17)
(-3.04064e-23 -5.40187e-18 -1.80186e-17)
(-6.75164e-39 1.70213e-17 1.46461e-18)
(2.6606e-23 4.23832e-18 -2.24269e-17)
(6.8416e-23 3.60541e-17 2.91682e-17)
(-3.80092e-24 -1.097e-17 -5.21299e-18)
(0 -7.15074e-19 -2.10033e-17)
(-3.80097e-24 3.25114e-17 3.42998e-17)
(3.04079e-23 -1.58067e-17 -1.72193e-17)
(3.42091e-23 3.88245e-18 -1.85752e-18)
(-3.04082e-23 -2.62662e-19 -3.90739e-17)
(6.08167e-23 4.59679e-18 1.73645e-17)
(0 8.96098e-18 -3.05453e-17)
(0 2.82748e-18 5.73505e-18)
(0 -6.72546e-19 -3.43519e-17)
(-6.08175e-23 -3.58176e-17 -3.32079e-17)
(-2.85083e-23 -1.65098e-17 1.02978e-17)
(-1.90056e-24 -1.26216e-17 -5.12082e-17)
(0 -3.46508e-17 2.33443e-17)
(-9.50281e-25 1.88158e-17 -1.37132e-16)
(-2.94588e-23 -7.35884e-18 1.05132e-16)
(0 -6.75916e-18 -1.53658e-16)
(0 -3.6524e-17 1.49228e-16)
(0 3.26559e-17 -6.96407e-17)
(0 2.22743e-17 8.19539e-17)
(0 -1.48714e-17 -3.07947e-17)
(-1.21619e-22 -2.29517e-17 5.85454e-17)
(6.08077e-23 -4.09499e-17 1.40301e-17)
(-6.08063e-23 3.71862e-17 2.89845e-17)
(0 4.6961e-18 -3.17575e-17)
(1.35013e-38 -5.04162e-17 7.53666e-17)
(0 -8.40918e-18 7.63488e-18)
(3.80026e-24 -1.16697e-17 4.09794e-17)
(-8.43827e-40 -2.017e-17 -1.73805e-17)
(-7.60054e-24 -1.2442e-17 3.38336e-17)
(3.80029e-24 1.2881e-17 -1.10558e-17)
(-7.60063e-24 -3.84339e-17 -1.76943e-17)
(3.80034e-24 5.56233e-18 2.67655e-17)
(3.80037e-24 8.28531e-19 3.93676e-17)
(0 -5.11421e-18 -1.49155e-17)
(-1.90022e-23 -2.61479e-17 -1.18148e-17)
(-1.52019e-23 9.45418e-18 2.70181e-17)
(-3.80051e-24 1.36582e-17 -5.72586e-18)
(-1.14016e-23 -3.09022e-17 4.16694e-19)
(-3.80058e-24 5.89046e-18 1.55689e-17)
(-6.08099e-23 -1.87996e-17 2.54865e-17)
(3.80065e-24 3.11521e-17 6.86442e-18)
(2.66048e-23 2.39514e-17 1.0136e-17)
(-3.80072e-24 -2.61194e-17 1.73201e-17)
(3.80075e-24 2.70883e-17 -1.67757e-17)
(0 2.03023e-18 8.52036e-19)
(0 -1.17921e-18 -6.65887e-18)
(3.42075e-23 1.55562e-17 -2.43297e-17)
(-3.42078e-23 -1.65736e-17 -2.32056e-17)
(-3.04071e-23 -4.45836e-17 -5.71354e-18)
(0 -1.8844e-17 -1.45306e-17)
(0 -9.56795e-18 -2.60594e-17)
(3.04077e-23 -3.94789e-17 8.63079e-18)
(-3.04079e-23 -4.68917e-18 -2.13177e-17)
(-3.0408e-23 3.32235e-17 -9.77614e-18)
(-3.04082e-23 -3.30917e-18 1.45242e-17)
(-2.66073e-23 -3.1848e-18 -2.84813e-18)
(-3.80106e-24 -6.29182e-17 -4.87264e-17)
(-1.90054e-24 2.15682e-17 -2.11298e-17)
(3.23092e-23 -2.16921e-18 -1.38475e-17)
(3.04087e-23 1.46014e-17 -4.54441e-17)
(0 2.22814e-17 -3.39413e-17)
(-3.04089e-23 -2.90379e-17 -4.79477e-17)
(-3.13592e-23 4.28232e-17 2.76183e-17)
(3.13593e-23 1.33778e-17 -1.25933e-16)
(6.08181e-23 -1.89302e-17 1.29654e-16)
(-3.03589e-23 -4.91494e-18 -1.73894e-16)
(0 -1.99203e-17 1.30495e-16)
(1.20685e-22 1.69482e-17 -1.17112e-16)
(-9.50235e-25 -6.17882e-18 1.29335e-16)
(1.9004e-24 1.52003e-17 2.02981e-17)
(6.08109e-23 -2.95735e-17 5.42308e-17)
(-5.70087e-23 2.40281e-18 1.28952e-17)
(5.70075e-23 -4.10605e-18 1.20761e-18)
(0 -2.77939e-17 1.73679e-17)
(1.21613e-22 -1.29009e-17 1.25145e-17)
(-3.04029e-23 2.49202e-17 1.39813e-17)
(-3.80035e-24 -1.29318e-17 6.09937e-17)
(-3.04027e-23 -8.58306e-18 3.00129e-17)
(3.80035e-24 2.05233e-17 1.17258e-17)
(3.80036e-24 -9.64518e-18 3.6365e-17)
(-3.80038e-24 -4.7726e-17 1.50598e-18)
(0 -1.58032e-17 -3.49248e-17)
(-3.80043e-24 -3.88501e-18 2.6084e-17)
(7.60091e-24 1.17189e-17 -1.90961e-17)
(7.60096e-24 5.22725e-18 2.35112e-17)
(0 -2.95616e-17 7.30278e-18)
(1.52022e-23 -3.5014e-18 -2.76363e-17)
(0 4.23765e-17 2.91963e-17)
(0 -5.46633e-18 1.2031e-17)
(2.66045e-23 1.19714e-17 2.22819e-17)
(-1.52027e-23 1.51721e-17 1.80378e-17)
(-2.66049e-23 -1.90802e-17 -1.46803e-17)
(2.66051e-23 1.4989e-18 1.80444e-17)
(3.80076e-24 -2.15788e-17 -3.3875e-17)
(3.04063e-23 -3.16112e-17 2.11572e-17)
(0 -6.2294e-18 -2.67378e-19)
(-3.80085e-24 1.16337e-17 1.34451e-17)
(3.42078e-23 -5.20014e-18 8.34526e-18)
(-3.04072e-23 -3.14143e-17 -2.41902e-17)
(-3.04074e-23 1.79392e-17 -1.07274e-17)
(3.80094e-24 -2.79562e-17 -5.83338e-17)
(-3.42087e-23 2.5622e-18 -1.60015e-17)
(0 1.31894e-17 -1.65796e-17)
(0 -1.72115e-17 1.52525e-17)
(3.04082e-23 -7.64518e-18 6.24856e-18)
(-3.80104e-24 8.35488e-18 -9.76646e-18)
(5.70158e-24 8.83348e-18 -2.87117e-17)
(-3.80107e-24 -1.11929e-17 -3.84056e-17)
(-2.85081e-23 1.95627e-17 -3.22491e-18)
(3.23093e-23 9.89018e-18 -5.04683e-17)
(2.85083e-23 1.69155e-17 -6.90783e-18)
(3.04089e-23 -1.2486e-17 -4.75363e-17)
(6.08179e-23 -2.385e-18 3.06894e-17)
(-4.75141e-25 -1.35505e-17 -1.11409e-16)
(-2.96964e-23 -1.71231e-17 1.31481e-16)
(3.01218e-23 1.02137e-17 -1.74129e-16)
(0 2.80966e-17 1.90417e-16)
(-1.21636e-22 -5.61456e-19 -1.10534e-16)
(5.89153e-23 -6.32897e-17 1.01813e-16)
(3.80086e-24 -1.47985e-17 -5.65143e-17)
(-1.90038e-24 -7.99839e-18 5.72419e-17)
(0 1.29964e-17 -6.77875e-18)
(0 8.62516e-18 6.42112e-17)
(0 -2.96047e-17 7.3388e-18)
(-6.08077e-23 -2.97033e-17 1.49578e-17)
(6.75095e-39 -2.96358e-17 4.8264e-17)
(0 -1.3916e-17 2.02608e-17)
(2.66029e-23 3.02307e-18 -8.74133e-18)
(3.80042e-24 1.30437e-18 1.18785e-17)
(0 -3.90923e-17 4.83767e-19)
(0 4.55259e-17 -3.31742e-18)
(3.80045e-24 -7.97488e-18 6.38457e-18)
(-3.80047e-24 -2.16813e-17 -1.0812e-17)
(-9.50124e-24 2.36291e-17 3.097e-17)
(3.80052e-24 -6.44556e-17 2.92734e-17)
(0 3.9237e-17 -2.73362e-18)
(-3.80058e-24 5.45678e-18 -9.77108e-18)
(7.60121e-24 4.98771e-18 1.47303e-17)
(1.14019e-23 2.72047e-17 1.97083e-17)
(0 -2.81487e-17 -2.07493e-17)
(2.66048e-23 1.63442e-17 1.15921e-17)
(2.28043e-23 2.74711e-17 -2.55329e-17)
(-3.42067e-23 -1.92059e-17 1.06288e-17)
(-3.80077e-24 1.9812e-17 1.65013e-18)
(-2.66056e-23 -3.19066e-17 -4.10107e-18)
(0 1.60802e-17 8.5533e-18)
(0 -1.80784e-17 -3.51429e-17)
(-6.46149e-23 4.84632e-18 -6.52733e-18)
(3.8009e-23 2.44576e-17 -1.92625e-18)
(3.04074e-23 5.52017e-18 -2.29827e-17)
(3.04076e-23 1.34747e-17 -1.90677e-18)
(-3.42087e-23 -5.6658e-17 -1.40909e-17)
(3.04079e-23 3.19272e-17 -8.91706e-18)
(3.801e-24 4.50505e-17 2.25009e-17)
(2.66072e-23 8.50283e-18 -3.67597e-17)
(1.90052e-24 8.30485e-18 2.61847e-18)
(-1.90053e-24 3.32129e-18 -3.15633e-17)
(-3.23091e-23 -7.80616e-18 -1.39115e-17)
(1.90054e-24 -4.23325e-18 -4.22585e-17)
(-3.04087e-23 2.53826e-17 -4.14502e-17)
(-3.04088e-23 -4.4736e-17 -2.60948e-17)
(0 1.37016e-17 -3.33244e-17)
(-3.0409e-23 1.82989e-17 2.38955e-17)
(-3.08842e-23 -1.43547e-17 -8.3092e-17)
(7.12714e-25 1.33182e-17 1.10029e-16)
(-2.37179e-25 -5.89905e-18 -1.73389e-16)
(0 -4.92694e-17 2.12085e-16)
(6.17685e-23 3.06455e-17 -1.03788e-16)
(-5.98661e-23 3.57044e-17 9.14824e-17)
(-6.27151e-23 -1.27224e-17 -4.91458e-17)
(-6.27135e-23 5.13693e-18 1.30316e-17)
(1.90037e-24 -3.63088e-17 8.75567e-18)
(-6.08106e-23 1.49167e-17 4.38229e-17)
(5.70091e-23 1.93821e-17 -6.80098e-19)
(3.80056e-24 -1.58534e-17 4.89553e-17)
(2.66037e-23 3.63737e-17 2.77662e-17)
(7.60101e-24 3.28068e-17 1.831e-17)
(-3.42044e-23 -2.44545e-17 2.53907e-17)
(0 -1.02472e-17 1.12485e-17)
(-3.80049e-24 -2.63633e-17 4.11138e-19)
(3.80049e-24 -2.7439e-17 1.86471e-17)
(0 -1.5122e-17 2.80536e-17)
(3.80052e-24 -1.17862e-17 -5.60346e-18)
(-5.70081e-24 1.01262e-18 2.03479e-19)
(7.60112e-24 1.49645e-17 -9.22137e-18)
(-3.80058e-24 -2.69594e-17 -1.01495e-17)
(0 2.50195e-17 6.31899e-17)
(-1.52025e-23 -4.4036e-17 -1.97884e-17)
(-1.90033e-23 1.53319e-17 3.08539e-17)
(7.60137e-24 -1.74525e-17 -5.60589e-18)
(-3.80071e-24 -3.32137e-18 -3.27099e-17)
(-1.52029e-23 -4.19138e-17 2.58759e-18)
(2.66053e-23 -2.6596e-17 -3.61255e-17)
(3.80079e-24 -2.40627e-17 3.94511e-17)
(3.80081e-24 3.28297e-17 -5.6937e-17)
(-3.80084e-24 -2.44861e-17 -3.9108e-18)
(0 -1.96774e-17 -1.89105e-17)
(6.08141e-23 -6.01749e-17 7.93474e-18)
(0 -3.45355e-17 -8.35666e-18)
(0 1.65395e-19 2.9322e-17)
(-2.66066e-23 -1.77017e-17 8.81875e-18)
(2.28058e-23 3.75001e-17 -1.36702e-17)
(3.80099e-24 -1.59741e-17 -6.5149e-18)
(3.801e-24 1.58693e-17 -3.37082e-20)