/*--------------------------------*- C++ -*----------------------------------*\
| =========                 |                                                 |
| \\      /  F ield         | foam-extend: Open Source CFD                    |
|  \\    /   O peration     | Version:     3.2                                |
|   \\  /    A nd           | Web:         http://www.foam-extend.org         |
|    \\/     M anipulation  | For copyright notice see file Copyright         |
\*---------------------------------------------------------------------------*/
FoamFile
{
    version     2.0;
    format      ascii;
    class       volVectorField;
    location    "0.02";
    object      U_0;
}
// * * * * * * * * * * * * * * * * * * * * * * * * * * * * * * * * * * * * * //

dimensions      [0 1 -1 0 0 0 0];

internalField   nonuniform List<vector> 
2500
(
(0 4.13983e-17 1.63602e-16)
(-3.01782e-23 3.78789e-17 -5.60863e-17)
(-3.02177e-23 4.82475e-17 8.97923e-17)
(0 2.4494e-17 -1.73192e-17)
(-6.0497e-23 -1.75056e-17 5.49273e-17)
(-1.51285e-23 1.36092e-17 1.8052e-17)
(-4.53953e-23 4.12061e-17 6.94636e-17)
(0 -5.53166e-18 -1.11681e-17)
(0 -4.09596e-17 3.51423e-17)
(6.05563e-23 -4.70441e-19 3.12606e-17)
(1.13558e-22 4.01677e-17 3.2189e-17)
(-1.13572e-22 -2.74298e-17 2.2869e-17)
(6.05786e-23 3.13065e-17 3.54637e-17)
(6.05852e-23 3.14401e-18 -8.1773e-20)
(7.57395e-24 -3.31711e-17 -4.72126e-18)
(-6.05977e-23 1.12666e-17 4.69072e-17)
(4.54526e-23 2.9836e-17 3.98866e-17)
(6.81853e-23 5.09432e-17 1.98453e-18)
(-7.57683e-24 2.89054e-17 -4.73589e-18)
(-8.41271e-40 3.30182e-17 -3.5275e-18)
(-5.30469e-23 -3.1419e-17 1.19004e-17)
(0 -1.55922e-17 -8.84875e-18)
(1.2127e-22 3.97289e-18 -6.89908e-18)
(-6.82194e-23 3.41021e-17 5.63367e-18)
(-1.13707e-22 -3.00406e-17 -2.82522e-17)
(0 3.17142e-17 1.92166e-17)
(0 3.43503e-17 -4.15739e-17)
(-6.82384e-23 3.65959e-17 -2.82013e-17)
(-5.30776e-23 -4.90216e-17 8.30683e-19)
(5.30808e-23 -3.53976e-18 3.35534e-17)
(7.58341e-23 1.356e-17 -1.29452e-17)
(-7.58381e-23 6.25393e-17 -2.52892e-18)
(7.5842e-23 -2.92169e-17 -2.00318e-17)
(-7.58456e-24 -2.83071e-17 -4.98523e-18)
(-7.5849e-24 -4.598e-17 -2.34797e-17)
(-5.30965e-23 4.4494e-18 1.83912e-17)
(6.06841e-23 -2.17132e-17 -4.00809e-17)
(-7.58577e-24 1.26736e-17 -1.96263e-17)
(-4.55161e-23 4.04115e-17 -2.25277e-17)
(-7.58622e-23 2.21126e-17 -6.80648e-17)
(7.58641e-23 -2.78469e-17 -3.4659e-17)
(5.3106e-23 8.9139e-18 -6.87893e-18)
(-2.27601e-23 1.04987e-17 -2.20867e-17)
(-7.5868e-24 2.85765e-17 -1.25733e-17)
(0 4.44068e-17 -1.62923e-17)
(2.65542e-23 6.45647e-17 -4.4001e-17)
(-4.21158e-40 1.15299e-17 -1.50885e-18)
(-1.13803e-23 -7.08353e-18 -7.33699e-17)
(0 -7.42602e-18 8.76928e-17)
(1.51483e-23 8.47935e-17 -1.69485e-16)
(0 -9.7716e-18 1.95537e-16)
(-4.55435e-22 -5.8532e-17 -6.49902e-17)
(-1.34851e-38 -1.90122e-18 6.7465e-17)
(-1.67056e-22 -5.04588e-17 4.32317e-17)
(3.03802e-23 1.90934e-17 2.67198e-17)
(-4.55774e-23 -3.49504e-17 1.94889e-17)
(0 1.94493e-18 7.60602e-18)
(-7.59779e-24 1.17435e-17 5.91535e-17)
(-7.59832e-24 5.00608e-18 4.59677e-17)
(-3.0395e-23 -1.84688e-17 2.88345e-17)
(-5.31937e-23 -1.57179e-17 1.18326e-17)
(6.07952e-23 6.7558e-18 3.39561e-17)
(7.59965e-24 -2.81801e-17 3.66548e-17)
(-1.51997e-23 4.99398e-17 1.99947e-17)
(1.52001e-23 -3.20415e-17 3.98635e-17)
(4.56014e-23 -5.02084e-17 -8.44771e-18)
(-4.56023e-23 6.48676e-18 -1.06738e-17)
(-1.21608e-22 -2.4814e-17 2.47419e-18)
(-7.60065e-24 -1.15078e-17 2.19171e-17)
(-6.08061e-23 -4.74551e-17 7.06254e-18)
(-6.0807e-23 -3.55129e-18 -1.25087e-17)
(7.60098e-24 7.18647e-18 -1.61145e-17)
(-6.08086e-23 -7.19345e-19 -2.01836e-17)
(4.5607e-23 -3.7783e-17 -9.40551e-18)
(7.60126e-23 1.54094e-17 1.34304e-18)
(5.32094e-23 -1.12223e-17 4.5729e-18)
(0 3.52237e-17 6.50739e-18)
(6.08121e-23 -8.76549e-17 -4.0826e-19)
(-6.08127e-23 4.59896e-18 1.97046e-17)
(1.35033e-38 4.72025e-17 -6.50822e-17)
(-6.0814e-23 -1.01199e-17 -3.28424e-19)
(-6.08146e-23 -3.84959e-17 -1.64002e-17)
(-6.08152e-23 1.19199e-17 2.13373e-17)
(-7.60197e-24 4.90983e-17 4.53713e-18)
(1.68799e-39 9.34999e-18 -8.68906e-18)
(0 -2.89846e-17 -2.39351e-17)
(-6.08173e-23 2.61908e-17 -6.25092e-17)
(-6.08178e-23 -6.48451e-17 -2.45376e-18)
(7.60228e-24 2.06285e-17 -2.87904e-17)
(6.08186e-23 -1.23787e-17 6.38305e-18)
(6.08189e-23 -3.82562e-17 -1.87471e-17)
(-7.6024e-24 -8.44266e-18 -1.16053e-17)
(7.60243e-24 -2.51962e-19 -2.49227e-17)
(-3.80122e-24 -8.39361e-18 -4.78924e-17)
(3.80122e-24 -1.51593e-17 -2.65115e-17)
(3.04097e-23 -4.78183e-17 -3.81379e-17)
(0 -3.36054e-17 1.63278e-17)
(1.52047e-23 5.84911e-18 -9.26248e-17)
(-9.50281e-25 2.00919e-17 6.72366e-17)
(9.48702e-25 -3.83273e-17 -1.71833e-16)
(-4.85612e-22 1.55078e-17 2.53454e-16)
(4.86145e-22 2.07705e-17 -7.55533e-17)
(-2.43038e-22 1.33314e-17 9.48727e-17)
(1.36716e-22 1.72822e-17 2.08205e-17)
(1.06346e-22 2.94682e-17 1.46734e-17)
(3.03875e-23 1.66362e-17 2.80154e-18)
(0 -8.77644e-18 1.10127e-17)
(7.59807e-24 1.08133e-18 3.53815e-17)
(-7.6282e-24 -1.82027e-17 4.50317e-18)
(3.79945e-23 7.79857e-17 5.67752e-17)
(-7.59921e-24 -8.27907e-18 1.37034e-17)
(7.59949e-24 -1.59088e-17 5.30097e-17)
(3.79986e-23 2.38993e-17 2.77516e-17)
(-9.87991e-23 -4.38163e-17 2.02873e-17)
(0 -1.32573e-17 4.88822e-17)
(-7.60027e-24 1.6114e-17 8.93728e-19)
(-5.32029e-23 1.3833e-17 8.7437e-19)
(6.8405e-23 3.64521e-18 1.95599e-17)
(-6.08054e-23 1.81008e-18 3.06715e-17)
(5.32055e-23 5.55023e-18 -8.12803e-18)
(6.08072e-23 1.06214e-17 9.52647e-18)
(6.0808e-23 2.3908e-17 -2.5046e-17)
(0 -2.38308e-17 -2.24257e-17)
(-6.08095e-23 3.53988e-17 -8.45038e-18)
(6.08102e-23 -3.94273e-17 -3.97903e-17)
(-6.08109e-23 6.24445e-17 -2.20088e-17)
(0 -4.55106e-17 3.36184e-17)
(0 1.47349e-18 -2.32014e-17)
(6.84144e-23 -1.4047e-18 -2.15406e-17)
(-6.8415e-23 -5.13152e-18 3.45656e-18)
(6.84157e-23 -3.28269e-18 1.79428e-17)
(6.08145e-23 -8.01187e-18 -2.7672e-17)
(-7.60189e-24 -5.37296e-17 -1.17727e-17)
(1.21631e-22 -2.24176e-17 -4.4328e-18)
(0 -6.66548e-17 -3.33253e-18)
(7.60208e-24 3.81248e-17 -1.33575e-17)
(5.3215e-23 -4.18612e-17 2.96056e-17)
(6.84197e-23 -2.1354e-17 -4.02407e-17)
(6.08179e-23 5.07708e-18 -3.01771e-17)
(4.22012e-39 9.24773e-18 -1.8263e-17)
(-6.84209e-23 2.08026e-17 4.15695e-18)
(3.80118e-24 -1.25043e-17 -4.34902e-17)
(-3.80119e-24 1.67785e-17 -2.89389e-17)
(0 2.60505e-17 -5.52411e-17)
(0 2.05049e-17 -1.04539e-17)
(-3.42107e-23 6.11887e-17 -4.36224e-17)
(3.80117e-24 2.91945e-18 2.94556e-18)
(0 -1.1016e-17 -8.81517e-17)
(9.50281e-25 2.04332e-17 9.78995e-17)
(2.94098e-23 1.86881e-17 -1.72311e-16)
(4.85683e-22 -4.90888e-18 1.45925e-16)
(0 2.87429e-17 -9.37022e-17)
(2.43114e-22 1.29604e-18 1.62616e-16)
(0 -4.45775e-17 -1.29822e-17)
(-1.06361e-22 3.37128e-17 6.90702e-17)
(-1.51952e-23 -4.86669e-17 3.10769e-17)
(-5.31863e-23 -1.31099e-17 -1.28113e-17)
(-1.68719e-39 3.40254e-17 4.63246e-17)
(-1.51679e-23 -4.08371e-18 -1.58803e-17)
(5.69932e-24 -1.29669e-17 4.79369e-17)
(0 -3.48301e-17 3.33042e-17)
(-1.51992e-23 -1.45517e-17 5.6808e-17)
(-3.03993e-23 -1.44729e-17 -2.82493e-17)
(3.04e-23 3.35509e-17 4.46007e-17)
(0 -4.85089e-17 -1.61533e-17)
(0 7.55127e-18 2.29032e-17)
(9.88061e-23 2.46554e-17 -2.10671e-18)
(-7.6006e-24 7.44738e-18 2.46951e-17)
(6.08057e-23 3.43321e-17 1.30622e-17)
(0 -2.17538e-17 1.12133e-17)
(-7.60093e-24 1.40167e-19 -1.18878e-17)
(-5.32072e-23 1.20773e-17 -1.48103e-17)
(-6.84101e-23 9.36486e-18 -5.31591e-18)
(7.60121e-24 -2.68047e-17 -4.46194e-17)
(-6.08103e-23 2.26984e-17 2.49494e-17)
(0 -9.0474e-17 -2.41672e-17)
(0 2.05945e-17 -1.5499e-17)
(-5.32107e-23 -2.59969e-18 6.7066e-18)
(-6.84144e-23 2.18314e-17 -1.44302e-17)
(0 7.45914e-18 1.45096e-17)
(0 -1.06797e-17 2.25923e-18)
(-7.60181e-24 -5.10865e-18 -8.66154e-19)
(1.52038e-23 -3.44156e-17 -1.1827e-17)
(-6.08155e-23 5.17482e-17 -2.19353e-17)
(-7.602e-24 -7.51567e-19 -3.72013e-17)
(0 -2.38552e-17 -1.01873e-17)
(4.72642e-38 4.11694e-17 -4.07622e-19)
(0 2.2145e-18 -3.9005e-17)
(-6.08177e-23 3.67342e-17 -1.25256e-17)
(-3.0409e-23 -4.56205e-17 9.48058e-19)
(0 -2.48399e-17 3.37145e-19)
(3.80116e-24 2.71261e-17 -3.0256e-17)
(2.66082e-23 6.03248e-18 -1.92117e-17)
(0 -3.5897e-17 -5.42129e-17)
(0 -5.14058e-17 -1.07232e-17)
(3.04094e-23 -1.85462e-17 -6.68729e-17)
(0 -2.10821e-17 1.9585e-17)
(0 -7.70013e-18 -7.90991e-17)
(0 4.21072e-17 3.42187e-17)
(-3.03586e-23 -1.91405e-17 -1.51796e-16)
(-2.42857e-22 3.60671e-17 1.79874e-16)
(-7.60001e-24 -3.63688e-17 -6.60746e-17)
(7.59884e-24 7.17887e-18 1.15305e-16)
(-2.43146e-22 -4.79746e-18 -1.52005e-17)
(7.59822e-24 -2.49336e-18 4.32502e-17)
(-7.59834e-24 6.02172e-17 4.61691e-17)
(6.07885e-23 5.72219e-19 2.63318e-17)
(0 -3.17264e-17 3.52273e-17)
(-3.03963e-23 2.49078e-17 4.34187e-17)
(9.49915e-24 -1.65444e-18 8.34819e-18)
(-9.49943e-24 2.52719e-17 1.64743e-17)
(1.51995e-23 2.01268e-18 2.61831e-17)
(7.59994e-24 2.12784e-17 1.26232e-17)
(1.52002e-23 -3.98659e-17 4.69539e-17)
(-3.80013e-23 1.17498e-17 -1.65449e-17)
(-3.04016e-23 4.15249e-18 2.32677e-17)
(-6.08042e-23 -8.80583e-18 4.80931e-18)
(0 -5.13481e-18 3.35664e-17)
(0 1.80807e-17 2.78237e-17)
(0 2.15151e-17 3.72837e-20)
(0 -2.33195e-18 7.66899e-18)
(0 -3.35902e-18 -1.88166e-17)
(1.29219e-22 1.82017e-17 1.50429e-17)
(-1.52025e-23 -2.64572e-17 -3.02758e-17)
(7.60131e-24 3.63629e-18 -9.00419e-18)
(-7.60139e-24 6.26947e-17 -1.09737e-17)
(-3.37573e-39 -4.71254e-18 2.50994e-17)
(6.84138e-23 -4.44321e-17 -3.21596e-17)
(-6.75158e-39 2.57558e-17 -1.78882e-17)
(0 -1.94898e-17 2.55383e-17)
(-5.32122e-23 -1.84704e-17 -1.80041e-17)
(-7.60181e-24 6.27252e-19 -1.40225e-17)
(1.2163e-22 -8.74189e-18 -2.40833e-18)
(0 -3.69715e-17 -3.84331e-17)
(0 -2.42887e-17 1.78835e-17)
(-7.60204e-24 -1.37828e-17 -3.91303e-17)
(-4.56126e-23 -4.4879e-17 -3.28953e-17)
(6.08171e-23 -5.38846e-18 2.62496e-17)
(2.28066e-23 -4.33442e-17 -2.72191e-17)
(3.04089e-23 7.87456e-18 -2.9053e-17)
(0 3.37926e-17 -2.4852e-17)
(0 3.28754e-17 -5.34182e-17)
(-2.66081e-23 5.51947e-18 1.01451e-17)
(-3.80116e-24 2.71585e-17 -2.54812e-17)
(-3.42104e-23 4.33142e-18 -3.03484e-17)
(-2.66081e-23 5.88947e-17 -6.81581e-17)
(-3.04092e-23 4.74233e-18 -7.97943e-18)
(0 3.53931e-18 -1.19038e-16)
(-3.0409e-23 3.21238e-17 3.44484e-17)
(0 -1.40171e-17 -1.35675e-16)
(3.79477e-24 -3.09174e-17 2.61769e-16)
(-3.8004e-24 2.31553e-17 -9.2239e-17)
(0 1.99862e-17 1.00212e-16)
(4.86354e-22 1.65455e-17 7.19728e-18)
(-7.59903e-24 1.61978e-17 5.04483e-17)
(1.5198e-23 -5.10152e-17 3.35511e-17)
(-7.59908e-24 3.24613e-17 2.83375e-17)
(0 1.32581e-17 5.27777e-17)
(6.07951e-23 2.08005e-17 3.39975e-17)
(3.03983e-23 -4.73301e-18 5.49724e-17)
(9.49968e-24 -3.9446e-17 2.95719e-17)
(-8.5499e-24 -3.18593e-18 1.70317e-17)
(-7.60007e-24 -3.94919e-17 2.22212e-17)
(-7.60021e-24 3.04206e-17 -8.36526e-18)
(3.80018e-23 -3.79169e-17 1.78258e-17)
(3.04019e-23 -3.57577e-18 1.55267e-17)
(3.8003e-23 -2.89364e-18 3.38792e-17)
(-7.60071e-24 -1.83515e-17 -9.86241e-18)
(7.60081e-24 -4.82122e-18 7.07796e-18)
(-1.52018e-23 -2.36057e-17 6.68448e-18)
(-3.37552e-39 -3.44183e-17 2.00031e-18)
(-2.28033e-23 -1.31708e-17 -2.00508e-17)
(-3.04047e-23 1.49112e-19 1.93871e-18)
(0 7.35641e-19 -2.19893e-17)
(0 -2.57033e-18 -1.53066e-17)
(7.60141e-24 -6.54967e-17 4.06137e-18)
(6.08118e-23 4.13515e-17 -7.94662e-18)
(-7.60155e-24 2.36708e-17 4.73507e-18)
(6.08129e-23 -1.58079e-17 -1.87477e-17)
(7.60168e-24 -3.84068e-17 1.04907e-17)
(-7.60175e-24 1.1318e-17 -1.84321e-17)
(0 -4.47526e-17 -4.21397e-17)
(-6.84168e-23 4.15554e-18 9.02823e-18)
(1.68797e-39 1.88831e-17 -9.40877e-18)
(-4.56119e-23 -2.2993e-17 -4.98042e-18)
(-7.60203e-24 2.07544e-17 -2.68067e-17)
(-3.80104e-24 -1.44418e-17 1.85451e-17)
(-8.74244e-23 8.39392e-18 -2.90497e-17)
(6.08173e-23 5.58764e-17 -7.49471e-18)
(0 -5.04424e-18 -2.16113e-17)
(-3.80112e-24 1.15573e-17 -5.62285e-17)
(3.80113e-24 -2.49091e-17 -1.26277e-17)
(2.6608e-23 -1.8974e-17 -2.23928e-17)
(-8.44024e-40 -3.7476e-18 -1.64392e-17)
(3.80115e-24 -1.36505e-17 -2.97794e-17)
(0 1.07636e-17 -4.56009e-17)
(3.04091e-23 1.24959e-17 2.62108e-17)
(-3.04091e-23 5.64082e-18 -8.05976e-17)
(3.0409e-23 -6.7585e-17 5.39669e-17)
(0 6.91031e-18 -1.82288e-16)
(2.4287e-22 -5.79937e-18 2.07691e-16)
(-2.43241e-22 3.21282e-17 -9.69621e-17)
(-2.43216e-22 -1.34234e-17 1.13077e-16)
(-3.72399e-22 -3.55793e-17 -6.65545e-18)
(7.59968e-24 2.74947e-17 6.70426e-17)
(-1.29192e-22 1.76921e-17 1.97727e-17)
(1.51991e-23 2.61025e-17 4.29881e-17)
(-7.5996e-24 -1.23287e-17 4.57625e-17)
(-3.03988e-23 2.1766e-18 -1.86218e-17)
(-3.79991e-23 -1.39543e-17 4.18698e-17)
(1.51999e-23 2.46004e-17 9.66454e-19)
(-1.42501e-23 -6.37977e-20 3.20424e-17)
(8.55023e-24 4.16266e-17 2.89235e-17)
(-7.60033e-24 -9.45344e-18 3.6639e-17)
(0 -1.20913e-17 2.79018e-17)
(0 -2.34937e-17 3.37933e-17)
(0 1.74744e-17 1.44734e-17)
(2.28023e-23 3.28025e-17 1.44058e-17)
(1.52017e-23 1.93657e-17 -1.95491e-17)
(3.04038e-23 -3.46125e-17 1.07627e-17)
(-1.52021e-23 6.76301e-17 -1.07093e-17)
(3.80056e-23 -6.1831e-18 -3.99574e-17)
(-3.04048e-23 2.1527e-18 5.44986e-18)
(2.28038e-23 2.17796e-17 -4.91382e-18)
(-2.28041e-23 2.17767e-17 3.62827e-17)
(0 -2.40988e-17 -5.06116e-17)
(-3.80075e-23 -1.40134e-18 1.40124e-17)
(1.52031e-23 -1.01083e-17 -4.75418e-17)
(5.32114e-23 5.5862e-17 4.94627e-17)
(-7.60169e-24 -2.53808e-17 -3.20113e-17)
(6.84158e-23 3.48804e-17 -2.86313e-17)
(0 -5.65568e-18 6.46577e-19)
(-7.60187e-24 1.67633e-18 -2.66046e-17)
(7.60192e-24 1.05385e-17 -1.2361e-18)
(9.50247e-23 3.83096e-18 -2.46216e-17)
(-3.80101e-23 1.76697e-17 -2.73995e-17)
(-2.66072e-23 -3.86542e-17 -7.02038e-18)
(5.70158e-23 4.00197e-17 -1.18774e-17)
(-5.3215e-23 -3.85615e-17 -3.09922e-17)
(2.28065e-23 -1.18002e-17 2.23483e-17)
(7.60221e-24 1.96174e-18 -4.58502e-17)
(2.66078e-23 -3.33032e-17 -1.98475e-17)
(-3.0409e-23 3.60817e-17 -6.16542e-17)
(3.04091e-23 2.58209e-18 1.85739e-17)
(3.04091e-23 1.33985e-17 -6.83306e-17)
(0 -3.08865e-17 -3.03688e-17)
(3.23097e-23 7.40056e-18 -1.41228e-17)
(2.85085e-23 -3.87652e-19 -5.88379e-17)
(0 5.91544e-17 4.80897e-17)
(0 4.52019e-18 -1.70019e-16)
(2.42873e-22 -3.47223e-17 1.9151e-16)
(0 8.92833e-18 -7.33175e-17)
(3.61046e-22 -1.43651e-18 1.30778e-16)
(1.17808e-22 2.34121e-17 -4.7294e-17)
(1.29203e-22 6.54518e-18 4.08261e-17)
(1.35003e-38 1.52702e-17 1.27882e-18)
(6.07995e-23 -1.59346e-17 4.20516e-17)
(-7.59994e-24 3.55149e-18 3.75915e-17)
(7.59998e-24 -1.7077e-18 1.00775e-17)
(0 9.21703e-18 1.16819e-17)
(-3.04006e-23 -3.29182e-17 4.23709e-17)
(-1.52005e-23 1.65623e-17 4.33941e-17)
(-9.50044e-25 -5.34247e-18 1.47846e-17)
(3.80023e-24 -6.22085e-18 5.10777e-17)
(0 -1.59013e-17 2.44961e-17)
(0 5.46222e-18 3.24685e-17)
(0 -1.97337e-17 9.80838e-18)
(-3.37545e-39 -4.76825e-17 -2.09502e-18)
(0 6.76615e-18 2.34065e-17)
(-3.0404e-23 1.49683e-17 -1.89715e-17)
(0 -5.02617e-18 1.02745e-17)
(7.60117e-24 -1.27653e-17 -2.7738e-17)
(-7.60124e-24 -1.1981e-17 2.54012e-17)
(-3.80066e-23 -6.41314e-18 -4.08721e-17)
(4.56083e-23 -1.22103e-17 1.82819e-17)
(2.28043e-23 6.01994e-18 1.41884e-17)
(-6.08121e-23 4.69753e-18 -1.96889e-17)
(0 -5.09065e-17 -3.28889e-17)
(-6.08131e-23 1.11873e-17 -2.11342e-17)
(3.80085e-24 7.12318e-18 1.44557e-18)
(-3.0407e-23 -1.48919e-18 -2.46128e-17)
(-1.26596e-39 -2.193e-17 -1.19424e-17)
(-8.43977e-40 2.81704e-17 -8.59405e-18)
(-7.60192e-24 2.17159e-17 -1.3671e-17)
(-2.66069e-23 2.65774e-17 -1.00787e-17)
(3.04081e-23 -2.20927e-17 9.80078e-19)
(3.42093e-23 -1.15798e-17 -2.73349e-17)
(-7.6021e-24 -1.7041e-18 1.05988e-17)
(6.46181e-23 1.16221e-17 -3.45209e-17)
(-3.04087e-23 2.60837e-17 -1.65262e-17)
(3.04088e-23 2.24733e-17 -4.21339e-17)
(-3.421e-23 -6.01637e-18 -2.29855e-17)
(3.80112e-24 2.58197e-18 -4.74773e-17)
(-3.0409e-23 -3.32421e-17 1.11213e-17)
(2.85085e-23 9.02675e-18 7.17369e-18)
(-2.85085e-23 -1.15511e-17 -4.31891e-17)
(-3.04091e-23 -1.84077e-17 -2.43068e-17)
(-9.50284e-25 -1.48476e-17 -9.79648e-17)
(9.50283e-25 -4.51923e-17 6.72956e-17)
(0 2.73999e-17 -1.72605e-16)
(-2.40977e-22 3.82568e-17 1.67294e-16)
(2.37556e-22 -7.53178e-18 -6.27987e-17)
(-1.1782e-22 3.10001e-18 1.33701e-16)
(3.80044e-24 -2.39239e-17 -7.32086e-18)
(-1.2541e-22 3.51755e-17 5.44094e-17)
(1.29207e-22 -2.2018e-17 3.33344e-17)
(-6.08023e-23 -7.34789e-18 2.27202e-17)
(-7.60025e-24 2.25837e-17 3.85337e-17)
(0 1.08472e-17 8.84347e-18)
(3.04011e-23 -4.92496e-17 5.92732e-17)
(3.37523e-39 3.94344e-18 -2.10512e-17)
(1.52008e-23 5.92912e-18 1.68901e-17)
(-7.60049e-24 -8.59529e-18 3.40178e-17)
(1.14009e-23 -1.61901e-18 2.84907e-17)
(-7.60066e-24 -2.96898e-17 1.87708e-17)
(-7.60074e-24 -1.28991e-17 6.64964e-19)
(-1.52017e-23 2.86359e-17 5.15179e-17)
(-1.52018e-23 2.18035e-17 -2.03091e-17)
(0 -1.2082e-17 3.12301e-18)
(-3.04042e-23 -3.55768e-17 -1.24637e-17)
(0 2.82787e-17 3.15362e-17)
(0 1.98928e-17 -5.222e-17)
(-3.80064e-24 1.05283e-17 1.44037e-17)
(-2.95372e-39 1.56221e-17 -9.88589e-18)
(3.8007e-23 9.62535e-18 1.43567e-18)
(-6.08118e-23 1.03566e-17 -3.45815e-18)
(2.66054e-23 7.58815e-18 -1.79629e-17)
(-3.8008e-24 -5.54442e-18 -9.38452e-19)
(-1.68791e-39 -1.32222e-17 -3.33067e-17)
(3.80085e-24 1.57136e-17 2.89076e-17)
(2.66062e-23 -5.9338e-18 -2.21384e-17)
(-2.66064e-23 3.03714e-18 -1.12946e-17)
(-3.80093e-24 9.10363e-18 -4.54568e-17)
(3.80096e-24 4.65009e-17 -5.79622e-19)
(0 -2.21097e-18 1.19748e-17)
(3.0408e-23 6.29286e-17 1.05242e-17)
(0 -3.21179e-17 1.9622e-17)
(-3.04083e-23 -3.62447e-18 -2.08435e-17)
(-3.04085e-23 1.88687e-18 -1.86634e-18)
(0 -4.19354e-17 -3.31655e-17)
(3.37605e-39 -2.32579e-17 -1.59114e-17)
(0 -9.12013e-18 -3.10299e-17)
(-3.80111e-24 -2.68418e-17 -1.04628e-17)
(3.80112e-24 3.40592e-18 -2.12568e-17)
(-3.0409e-23 -2.95035e-17 -3.95009e-17)
(3.0409e-23 2.70985e-17 -5.79704e-17)
(0 1.46478e-17 -8.655e-18)
(3.04091e-23 -2.49789e-17 -7.37406e-17)
(-4.75142e-25 6.96268e-17 3.33149e-17)
(4.74357e-25 -3.09738e-17 -1.79427e-16)
(0 -6.06501e-17 1.70144e-16)
(1.19731e-22 -3.48584e-17 -5.12331e-17)
(1.90038e-24 2.92242e-17 1.00453e-16)
(0 -1.96597e-17 -2.52919e-17)
(-1.21614e-22 -2.5596e-17 8.68926e-17)
(1.21611e-22 2.67349e-17 2.14938e-18)
(3.80029e-24 4.12975e-18 3.48371e-17)
(-3.80026e-24 -3.03171e-18 8.07659e-19)
(-6.08039e-23 1.29306e-17 4.56292e-17)
(-3.0402e-23 2.36032e-17 3.0163e-17)
(6.08042e-23 -9.57637e-18 -8.7717e-18)
(-1.52012e-23 -1.76792e-17 1.35399e-17)
(-1.52013e-23 -4.027e-18 2.54152e-17)
(3.80035e-24 -6.5049e-18 2.81495e-17)
(3.80038e-24 1.93667e-17 2.30402e-17)
(3.80042e-24 -1.92447e-17 4.20866e-18)
(1.14014e-23 -4.35493e-17 -2.21005e-18)
(-1.68776e-39 1.69875e-17 3.49932e-17)
(3.80052e-24 -2.0777e-17 5.60649e-17)
(4.56067e-23 7.31407e-19 1.81836e-17)
(0 -2.89824e-17 -2.18085e-17)
(-3.0405e-23 -6.37609e-18 3.49016e-18)
(-3.04053e-23 -4.47369e-17 -2.43525e-17)
(3.04055e-23 1.03115e-18 -3.4998e-17)
(-6.08115e-23 -1.67342e-17 -4.57668e-18)
(2.66052e-23 2.74432e-17 -5.19108e-18)
(7.60156e-24 -7.16849e-18 8.77461e-18)
(-3.80081e-24 6.08842e-18 1.45349e-17)
(0 9.09756e-18 -1.65615e-18)
(-3.04069e-23 -6.40705e-18 -1.45798e-17)
(0 6.69832e-17 3.87074e-19)
(3.80091e-24 -2.11847e-18 7.01672e-18)
(-3.80094e-24 -1.44023e-18 -4.06858e-17)
(0 -1.5292e-17 -1.47475e-17)
(3.80098e-24 -2.06899e-17 -1.51263e-17)
(-3.801e-24 1.12244e-17 -4.75358e-17)
(3.80102e-24 1.69327e-17 2.91353e-17)
(-7.60208e-24 2.42602e-17 -8.78542e-18)
(3.80106e-24 1.36864e-17 -2.03523e-17)
(3.80107e-24 5.32114e-18 -3.54511e-17)
(-3.42098e-23 3.17606e-17 -5.27295e-17)
(0 -4.07392e-18 -1.31349e-17)
(3.80111e-24 -4.86377e-18 -1.79422e-17)
(-3.80112e-24 -2.82657e-17 -1.99024e-17)
(0 1.01924e-17 -3.78823e-17)
(-1.90056e-24 -5.14075e-17 -4.9952e-17)
(1.90057e-24 -1.67677e-17 -5.65015e-18)
(-3.04091e-23 -1.63412e-17 -8.32076e-17)
(0 -4.1663e-17 8.04725e-17)
(-3.03589e-23 4.46072e-17 -1.74028e-16)
(0 3.19837e-17 1.43377e-16)
(-2.41365e-22 3.4164e-17 -8.35039e-17)
(-1.90042e-24 -3.10988e-18 1.49106e-16)
(0 4.81422e-18 -7.61431e-18)
(-1.35023e-38 -2.67372e-18 6.06991e-17)
(-1.21615e-22 -1.89991e-17 1.83395e-17)
(0 -1.69258e-17 3.01968e-17)
(3.80037e-24 -4.63438e-18 3.55229e-17)
(-7.60071e-24 -1.11588e-17 1.09172e-17)
(7.60069e-24 2.14845e-18 1.19049e-17)
(-6.84063e-23 -1.08533e-19 3.94617e-17)
(2.28022e-23 -1.02665e-17 7.9862e-18)
(1.14012e-23 -4.34769e-17 2.97906e-17)
(-3.80041e-24 1.07643e-17 1.35827e-17)
(-3.80044e-24 -1.73991e-17 4.78081e-17)
(4.21936e-40 -2.21741e-17 3.34963e-17)
(-3.8005e-24 -2.02442e-17 -1.23511e-17)
(-2.66037e-23 -4.44436e-17 1.46091e-17)
(3.80056e-24 -1.75959e-17 -1.29056e-17)
(-3.42053e-23 1.82095e-19 2.62906e-17)
(0 2.14879e-17 1.03472e-17)
(6.08104e-23 -2.79072e-17 5.80465e-18)
(3.42061e-23 2.31716e-17 -2.40485e-17)
(-3.42064e-23 -1.51382e-17 -1.50864e-17)
(3.80073e-24 2.36918e-18 -1.43155e-17)
(-3.80076e-24 -1.37342e-17 1.41464e-17)
(0 -2.69978e-17 -1.26228e-17)
(2.66057e-23 1.62315e-17 -1.18533e-17)
(3.80084e-24 1.35003e-17 -1.24777e-17)
(6.08139e-23 2.77686e-17 -1.46607e-18)
(-3.4208e-23 3.73962e-18 -6.51786e-18)
(3.42082e-23 -1.84852e-17 3.17647e-17)
(-3.04075e-23 7.78686e-18 5.63774e-18)
(3.80096e-24 4.28676e-19 1.01268e-18)
(-3.80098e-24 5.94954e-17 -1.28478e-17)
(-3.0408e-23 -5.26922e-17 -7.35495e-17)
(3.80102e-24 -2.36744e-17 5.42342e-18)
(-3.80104e-24 7.10774e-18 2.7316e-18)
(3.04084e-23 3.34927e-17 1.59996e-17)
(-3.04085e-23 -3.10636e-17 -3.89414e-17)
(0 -1.97989e-17 -5.18545e-18)
(3.80109e-24 -2.0774e-17 -4.52228e-17)
(-1.90055e-24 2.68672e-17 -4.24093e-17)
(2.66078e-23 1.60521e-17 -6.31265e-17)
(3.23095e-23 5.99648e-18 2.61467e-17)
(0 -1.4927e-17 -5.39446e-17)
(-9.50283e-25 -3.24508e-17 4.01466e-17)
(9.50284e-25 2.74025e-17 -9.90623e-17)
(4.75143e-25 8.8675e-18 8.91534e-17)
(2.98846e-23 -4.01387e-18 -1.99892e-16)
(-9.48738e-25 2.88062e-18 1.90306e-16)
(1.22584e-22 -3.41689e-17 -5.95067e-17)
(0 -2.57569e-17 1.16556e-16)
(-3.80078e-24 -2.34809e-17 -2.83649e-17)
(2.47044e-22 4.01953e-18 6.02559e-17)
(0 1.03173e-17 9.73923e-18)
(0 -4.04758e-17 5.91385e-17)
(0 3.76742e-17 -2.12369e-17)
(-6.75095e-39 -1.8352e-17 1.94934e-17)
(3.80043e-24 5.35677e-18 3.1359e-17)
(2.6603e-23 -2.45428e-17 2.16813e-17)
(0 -1.3789e-17 2.788e-17)
(0 3.1404e-18 3.36792e-17)
(0 -4.46487e-17 -2.3537e-18)
(3.80049e-24 3.7806e-18 6.66276e-17)
(3.80051e-24 4.13508e-17 1.48291e-17)
(-3.80054e-24 -3.97749e-17 2.16878e-17)
(1.52022e-23 1.47093e-18 -1.18043e-17)
(1.90029e-23 -5.19946e-18 3.63463e-17)
(2.66043e-23 -4.08243e-17 5.45292e-18)
(-1.52026e-23 -3.5739e-17 -1.63079e-17)
(-1.1402e-23 4.24891e-17 1.60363e-18)
(-3.8007e-24 -2.97345e-18 -1.0704e-17)
(3.04058e-23 3.8493e-18 2.2263e-18)
(3.0406e-23 -2.26566e-17 2.95264e-18)
(0 -1.9179e-17 9.96541e-18)
(-3.04064e-23 -7.37855e-19 3.77378e-18)
(-3.04066e-23 -3.18039e-17 -2.75315e-18)
(0 2.01749e-17 -1.78485e-17)
(-3.0407e-23 -1.00241e-17 -5.92067e-18)
(1.01276e-38 1.29066e-17 8.93111e-18)
(2.66064e-23 -1.22923e-18 -2.44244e-17)
(6.84169e-23 2.47552e-17 1.20088e-17)
(-3.80096e-24 1.27632e-17 -1.71499e-17)
(0 -8.78102e-18 -2.37986e-17)
(-3.801e-24 3.39043e-17 2.70897e-17)
(3.04082e-23 -3.44707e-18 -1.56593e-17)
(3.42093e-23 8.03488e-18 -1.26223e-18)
(-3.04084e-23 -2.89712e-18 -5.81201e-17)
(6.08171e-23 7.36375e-18 -3.04201e-18)
(0 7.67847e-18 -4.26731e-17)
(0 -4.21553e-18 2.83206e-18)
(0 -1.58105e-19 -4.1131e-17)
(-6.08178e-23 -3.31885e-17 -2.7812e-17)
(-2.85084e-23 -2.10578e-17 5.69213e-18)
(-1.90056e-24 -1.49637e-17 -4.34413e-17)
(0 -3.63594e-17 2.13254e-17)
(-9.50285e-25 1.61117e-17 -1.35015e-16)
(-2.94589e-23 -6.36475e-18 8.13221e-17)
(0 -6.76752e-18 -1.69561e-16)
(0 -4.64451e-17 1.56107e-16)
(0 4.32119e-17 -4.90084e-17)
(0 1.18514e-17 7.66704e-17)
(0 -9.20973e-18 -9.87759e-18)
(-1.21624e-22 -4.02459e-18 6.05078e-17)
(6.08108e-23 -3.75516e-17 3.01972e-17)
(-6.08097e-23 3.6602e-17 3.7429e-17)
(0 -5.18652e-19 -1.97396e-17)
(-2.70044e-38 -6.35647e-17 6.41462e-17)
(0 -1.96859e-17 1.40806e-17)
(3.8005e-24 -2.19182e-17 3.40379e-17)
(-4.21941e-40 -2.06446e-17 -3.02579e-17)
(-7.60102e-24 -3.48194e-18 4.83975e-17)
(3.80052e-24 5.38123e-18 2.13975e-17)
(-7.60107e-24 -4.85559e-17 1.41909e-17)
(3.80056e-24 8.29538e-18 3.34629e-17)
(3.80058e-24 -6.14684e-18 4.0138e-17)
(0 -7.27009e-18 -1.23121e-17)
(-1.90031e-23 -1.92269e-17 -5.90294e-18)
(-1.52026e-23 6.87295e-18 1.71326e-17)
(-3.80067e-24 8.49487e-18 -6.58092e-18)
(-1.14021e-23 -3.89691e-17 -1.77565e-18)
(-3.80072e-24 -1.15561e-17 -2.61135e-18)
(-6.08119e-23 -4.16071e-17 8.54707e-18)
(3.80077e-24 2.72273e-17 -3.42909e-18)
(2.66055e-23 6.79572e-18 -6.54869e-20)
(-3.80081e-24 -1.25882e-17 1.7198e-17)
(3.80084e-24 2.71888e-17 -4.03798e-18)
(0 -8.73186e-18 1.13033e-17)
(0 -1.22305e-18 -3.04083e-19)
(3.42081e-23 4.81317e-18 -2.53515e-17)
(-3.42083e-23 -2.53427e-17 -2.18109e-17)
(-3.04076e-23 -4.92274e-17 -1.24959e-17)
(0 -1.94359e-17 -3.07694e-17)
(0 -4.28829e-18 -3.4884e-17)
(3.0408e-23 -2.36414e-17 1.15348e-17)
(-3.04082e-23 3.41811e-18 -3.65202e-18)
(-3.04083e-23 2.32029e-17 -2.65208e-17)
(-3.04084e-23 -1.10983e-17 -1.4108e-17)
(-2.66075e-23 -1.61925e-17 -3.12112e-17)
(-3.80108e-24 -6.18227e-17 -5.53611e-17)
(-1.90054e-24 2.1815e-17 -1.99074e-17)
(3.23094e-23 -6.82014e-18 -2.47676e-17)
(3.04089e-23 6.62498e-18 -4.60594e-17)
(0 1.61595e-17 -4.21012e-17)
(-3.0409e-23 -3.66677e-17 -3.45569e-17)
(-3.13594e-23 3.3515e-17 3.46081e-17)
(3.13594e-23 1.37068e-17 -1.16915e-16)
(6.08184e-23 -1.3624e-17 1.10538e-16)
(-3.0359e-23 -2.26997e-17 -1.97536e-16)
(0 -2.28907e-17 1.47112e-16)
(1.20686e-22 8.13833e-18 -1.02107e-16)
(-9.50252e-25 -1.4834e-18 1.29967e-16)
(1.90045e-24 2.62892e-17 3.93715e-17)
(6.08131e-23 -1.77802e-17 6.79872e-17)
(-5.70112e-23 2.17881e-17 1.75791e-17)
(5.70103e-23 7.16862e-18 -8.76994e-19)
(0 -2.50518e-17 1.94516e-17)
(1.21619e-22 -1.53003e-17 7.60321e-18)
(-3.04047e-23 9.17444e-18 3.39686e-18)
(-3.80057e-24 -2.07932e-17 5.3006e-17)
(-3.04045e-23 -1.9961e-17 2.8883e-17)
(3.80057e-24 3.77897e-18 3.05692e-17)
(3.80057e-24 -1.91809e-17 6.38178e-17)
(-3.80058e-24 -5.88804e-17 2.32971e-17)
(0 -3.43181e-17 -2.44145e-17)
(-3.80061e-24 -1.01143e-17 3.094e-17)
(7.60126e-24 2.51009e-18 -9.72937e-18)
(7.6013e-24 -6.3544e-18 2.25383e-17)
(0 -4.43176e-17 3.80019e-18)
(1.52028e-23 -8.94516e-18 -3.03566e-17)
(0 3.6878e-17 1.54702e-17)
(0 -2.29354e-17 -1.04447e-17)
(2.66053e-23 -2.49464e-18 3.78606e-18)
(-1.52031e-23 -2.60725e-18 1.16238e-17)
(-2.66056e-23 -1.96467e-17 -1.67978e-18)
(2.66058e-23 3.33709e-18 9.57583e-18)
(3.80085e-24 -2.36083e-17 -3.12196e-17)
(3.0407e-23 -2.27692e-17 2.6555e-17)
(0 -1.07439e-17 -3.99399e-19)
(-3.80091e-24 4.28736e-18 7.7978e-18)
(3.42084e-23 -2.0465e-17 -5.24133e-19)
(-3.04076e-23 -2.87862e-17 -1.38406e-17)
(-3.04077e-23 1.56927e-17 -1.5202e-17)
(3.80099e-24 -1.69963e-17 -5.13978e-17)
(-3.4209e-23 8.10179e-18 -1.67852e-17)
(0 -6.81338e-19 -3.05874e-17)
(0 -3.57126e-17 3.69353e-18)
(3.04084e-23 -2.34948e-17 -1.98731e-17)
(-3.80106e-24 8.55459e-18 -2.51552e-17)
(5.70162e-24 -9.51237e-20 -3.93361e-17)
(-3.80109e-24 -3.07637e-17 -4.03129e-17)
(-2.85082e-23 1.46184e-17 -8.80103e-18)
(3.23094e-23 6.77192e-18 -5.38703e-17)
(2.85084e-23 1.09375e-17 6.95316e-18)
(3.0409e-23 -8.0958e-18 -4.28384e-17)
(6.08182e-23 2.25087e-18 4.49415e-17)
(-4.75143e-25 -1.36435e-17 -1.17029e-16)
(-2.96965e-23 -1.46092e-17 1.04128e-16)
(3.01219e-23 1.0437e-17 -1.88186e-16)
(0 2.47613e-17 2.00779e-16)
(-1.21636e-22 -5.72178e-18 -9.32063e-17)
(5.89162e-23 -4.81816e-17 1.16686e-16)
(3.80095e-24 -6.33254e-19 -3.517e-17)
(-1.90044e-24 8.8919e-19 7.02624e-17)
(0 3.16676e-17 2.37118e-18)
(0 1.41146e-17 5.83196e-17)
(0 -2.79816e-17 7.01891e-18)
(-6.08107e-23 -2.30981e-17 2.66333e-18)
(0 -3.72824e-17 2.96659e-17)
(0 -2.737e-17 1.29441e-17)
(2.66043e-23 -1.82217e-18 7.5496e-18)
(3.80062e-24 1.11684e-17 2.36575e-17)
(0 -3.65126e-17 2.77545e-17)
(0 3.59519e-17 1.70413e-17)
(3.80064e-24 -1.82823e-17 2.4821e-17)
(-3.80065e-24 -2.53766e-17 2.22543e-18)
(-9.50167e-24 1.92745e-18 3.71674e-17)
(3.80068e-24 -6.23393e-17 2.98524e-17)
(0 2.38012e-17 -2.70335e-19)
(-3.80072e-24 -1.10307e-17 -1.64742e-17)
(7.60148e-24 -1.06916e-17 -7.78567e-18)
(1.14023e-23 6.41855e-18 4.14849e-18)
(0 -4.84598e-17 -3.99905e-17)
(2.66056e-23 6.4388e-18 7.85197e-18)
(2.28049e-23 4.77451e-18 -2.00117e-17)
(-3.42076e-23 -2.07485e-17 1.83896e-17)
(-3.80086e-24 7.54258e-18 -1.96144e-18)
(-2.66062e-23 -3.61623e-17 4.46174e-18)
(0 9.00835e-18 9.17037e-18)
(0 -1.23261e-17 -4.03005e-17)
(-6.46159e-23 9.38631e-18 1.36107e-19)
(3.80096e-23 2.03077e-17 3.07492e-18)
(3.04078e-23 -4.49329e-18 -3.22184e-17)
(3.04079e-23 1.12303e-17 5.36324e-19)
(-3.42091e-23 -6.66322e-17 -2.37352e-17)
(3.04082e-23 1.79799e-17 -1.77161e-17)
(3.80104e-24 1.77465e-17 -5.9983e-18)
(2.66074e-23 2.49453e-18 -4.73735e-17)
(1.90053e-24 -1.84621e-17 -2.13885e-18)
(-1.90054e-24 3.44939e-18 -4.10019e-17)
(-3.23093e-23 -6.48504e-20 -9.29226e-18)
(1.90055e-24 -6.6128e-18 -5.12905e-17)
(-3.04089e-23 3.01377e-17 -4.69943e-17)
(-3.0409e-23 -3.4229e-17 -1.12351e-17)
(0 1.15879e-17 -2.85109e-17)
(-3.04091e-23 2.07432e-17 2.09493e-17)
(-3.08843e-23 -1.87378e-17 -8.31315e-17)
(7.12716e-25 -1.52077e-17 9.32213e-17)
(-2.3718e-25 -1.38392e-17 -1.88848e-16)
(0 -3.01608e-17 2.27958e-16)
(6.17687e-23 3.61843e-17 -8.23821e-17)
(-5.98668e-23 4.10291e-17 1.03556e-16)
(-6.27163e-23 -4.03408e-18 -2.60103e-17)
(-6.27152e-23 2.62166e-18 2.87674e-17)
(1.90043e-24 -4.54408e-17 2.00396e-17)
(-6.08129e-23 7.76743e-18 2.76413e-17)
(5.70114e-23 1.46532e-17 -1.79063e-18)
(3.80073e-24 -3.58868e-17 2.70446e-17)
(2.66049e-23 2.20809e-17 8.66178e-18)
(7.60137e-24 3.36273e-17 2.07816e-17)
(-3.4206e-23 -3.16837e-17 4.65848e-17)
(0 -1.94827e-18 2.96163e-17)
(-3.80067e-24 -2.42925e-17 1.06659e-17)
(3.80067e-24 -3.29267e-17 3.01741e-17)
(0 -1.41735e-17 4.77049e-17)
(3.80069e-24 -1.15092e-17 1.4528e-18)
(-5.70105e-24 5.61288e-18 3.41069e-18)
(7.60142e-24 1.20024e-18 -3.3514e-19)
(-3.80073e-24 -3.69581e-17 -1.1904e-17)
(0 3.55033e-18 4.97294e-17)
(-1.5203e-23 -6.687e-17 -3.96433e-17)
(-1.90039e-23 -5.5415e-18 1.0589e-17)
(7.60159e-24 -1.41922e-17 -7.78075e-18)
(-3.80082e-24 -9.54956e-18 -3.90405e-17)
(-1.52033e-23 -3.43325e-17 1.10772e-17)
(2.6606e-23 -2.51807e-17 -2.49422e-17)
(3.80087e-24 -2.50692e-17 3.5217e-17)
(3.80089e-24 2.34608e-17 -5.13012e-17)
(-3.80091e-24 -1.77246e-17 4.33166e-18)
(0 -1.311e-17 -1.6385e-17)
(6.08151e-23 -4.49833e-17 1.77556e-17)
(0 -2.53837e-17 -1.5811e-17)
(0 -2.30831e-18 1.80914e-17)
(-2.6607e-23 -3.91731e-17 -6.87573e-19)