/*--------------------------------*- C++ -*----------------------------------*\
| =========                 |                                                 |
| \\      /  F ield         | foam-extend: Open Source CFD                    |
|  \\    /   O peration     | Version:     3.1                                |
|   \\  /    A nd           | Web:         http://www.extend-project.de       |
|    \\/     M anipulation  |                                                 |
\*---------------------------------------------------------------------------*/
FoamFile
{
    version     2.0;
    format      ascii;
    class       volSymmTensorField;
    location    "0.005";
    object      DSigma;
}
// * * * * * * * * * * * * * * * * * * * * * * * * * * * * * * * * * * * * * //

dimensions      [1 -1 -2 0 0 0 0];

internalField   nonuniform List<symmTensor> 
328
(
(-0.770151 0.177164 2.69342e-26 -0.796252 -1.01069e-19 -0.626561)
(-0.881469 0.080154 -5.34505e-29 -0.670835 -1.24391e-32 -0.620921)
(-0.872182 -0.0809465 -2.55161e-26 -0.666743 -1.68955e-26 -0.61557)
(-0.731156 -0.182636 -3.05623e-25 -0.782309 -1.18745e-19 -0.605386)
(-0.833065 0.122647 -4.21099e-25 -0.925778 4.24488e-19 -0.703537)
(-0.879752 0.0660434 2.85119e-26 -0.80534 -6.07427e-26 -0.674037)
(-0.87056 -0.0681676 -3.1097e-27 -0.804085 -4.68524e-26 -0.669858)
(-0.796065 -0.126649 -3.6642e-26 -0.916256 -1.44458e-19 -0.684928)
(-0.849764 0.0770705 6.71559e-25 -1.00218 -8.15833e-20 -0.740777)
(-0.836518 0.0504351 -7.72582e-28 -0.883223 -1.1226e-29 -0.687896)
(-0.826668 -0.0534792 7.72582e-28 -0.88322 1.1226e-29 -0.683955)
(-0.813378 -0.0800517 5.73583e-25 -0.995096 6.77506e-20 -0.72339)
(-0.870266 0.0441435 -9.64997e-25 -1.05516 1.12947e-19 -0.77017)
(-0.825236 0.0341728 1.2784e-25 -0.95567 -9.38587e-26 -0.712362)
(-0.81551 -0.0377733 1.46497e-25 -0.956664 1.51837e-25 -0.70887)
(-0.834944 -0.0464842 -3.10369e-25 -1.04971 -1.4606e-19 -0.753861)
(-0.878175 0.0222028 8.53192e-25 -1.08594 -2.29714e-19 -0.785646)
(-0.811944 0.0199838 1.6979e-26 -1.00492 -1.2592e-26 -0.726745)
(-0.802314 -0.0238663 -1.15613e-25 -1.00639 -9.42843e-26 -0.723483)
(-0.843736 -0.0241696 -2.57869e-25 -1.0814 2.18789e-20 -0.770055)
(-0.882312 0.00815935 -6.4318e-25 -1.10419 1.81999e-19 -0.794601)
(-0.808602 0.00866637 -2.67479e-25 -1.04307 1.94176e-25 -0.740669)
(-0.799265 -0.0126788 1.34725e-25 -1.04485 1.15631e-25 -0.737644)
(-0.848848 -0.00991608 -8.25873e-26 -1.10021 2.43922e-19 -0.779622)
(-0.881671 -0.000182749 1.28741e-25 -1.11359 -2.47917e-19 -0.798103)
(-0.807624 0.000624593 1.3101e-25 -1.06906 -9.40208e-26 -0.750675)
(-0.798605 -0.0046709 -1.25617e-25 -1.07097 -1.07814e-25 -0.747828)
(-0.849203 -0.00146139 1.75628e-25 -1.10992 3.13584e-20 -0.783649)
(-0.87868 -0.00467428 -4.03421e-26 -1.11779 1.95066e-19 -0.798588)
(-0.81011 -0.00448191 8.02265e-27 -1.08697 -1.18667e-26 -0.75883)
(-0.801456 0.000452369 0 -1.08892 0 -0.756149)
(-0.847274 0.00309034 7.43357e-26 -1.11433 -1.38413e-19 -0.784643)
(-0.874105 -0.00661506 1.89065e-25 -1.1188 -2.00621e-20 -0.79716)
(-0.813809 -0.00716864 -3.15619e-26 -1.09817 2.11406e-26 -0.764794)
(-0.80553 0.00318417 1.30843e-25 -1.10012 1.12071e-25 -0.76226)
(-0.843823 0.00506504 1.90664e-26 -1.11549 8.72701e-20 -0.783725)
(-0.868988 -0.00699163 -5.95996e-26 -1.11805 -1.56404e-19 -0.794815)
(-0.818277 -0.008099 3.75161e-26 -1.10475 -1.32824e-26 -0.769209)
(-0.810385 0.00417383 -1.34305e-25 -1.10666 -1.05847e-25 -0.766816)
(-0.839901 0.00546456 -1.0307e-25 -1.11488 -4.11157e-20 -0.781911)
(-0.863909 -0.00648988 2.87791e-26 -1.1164 7.07056e-20 -0.792125)
(-0.822671 -0.00788221 -1.08471e-26 -1.10799 1.02317e-26 -0.772265)
(-0.815172 0.00402439 7.51612e-27 -1.10985 1.16657e-26 -0.770007)
(-0.836088 0.00498275 -5.59174e-27 -1.11337 5.54662e-20 -0.779781)
(-0.859297 -0.00558728 -4.39119e-26 -1.1144 3.35419e-20 -0.789477)
(-0.826662 -0.00703719 -6.31369e-27 -1.10909 -2.28393e-27 -0.774302)
(-0.819562 0.00325177 8.40477e-27 -1.11088 1.34766e-27 -0.772176)
(-0.832816 0.004101 1.25157e-27 -1.1115 4.47685e-20 -0.777727)
(-0.855356 -0.00458756 1.59603e-26 -1.11233 -1.47515e-20 -0.787073)
(-0.829996 -0.00594547 -1.85385e-26 -1.10887 -3.50181e-27 -0.775546)
(-0.823304 0.0022368 0 -1.11057 0 -0.773551)
(-0.830291 0.00312477 5.23562e-27 -1.10959 -6.56612e-20 -0.775951)
(-0.852151 -0.00366807 -1.86015e-26 -1.11035 1.20328e-20 -0.784999)
(-0.832623 -0.00485924 3.38839e-26 -1.10792 -1.05538e-26 -0.776216)
(-0.82635 0.00123176 0 -1.10953 0 -0.774354)
(-0.828578 0.00223207 6.50598e-27 -1.10777 -2.23168e-20 -0.77454)
(-0.849638 -0.00291215 1.50327e-26 -1.1085 -7.81749e-20 -0.783256)
(-0.834578 -0.00391679 0 -1.10662 0 -0.776478)
(-0.828736 0.000375554 0 -1.10814 0 -0.774749)
(-0.827632 0.00150643 -7.11775e-26 -1.10611 -1.35618e-20 -0.773496)
(-0.847715 -0.00234094 7.87761e-26 -1.10679 -2.10684e-20 -0.781801)
(-0.835966 -0.00317209 -5.77078e-26 -1.10518 1.38239e-26 -0.776459)
(-0.830568 -0.000277111 -1.74208e-26 -1.1066 -4.45729e-27 -0.774866)
(-0.827352 0.000969035 4.54709e-26 -1.10458 3.17918e-20 -0.772774)
(-0.846255 -0.00193821 -1.10236e-25 -1.10516 7.68226e-20 -0.780566)
(-0.836914 -0.00262343 1.05343e-25 -1.10371 1.16069e-27 -0.776252)
(-0.831976 -0.000727142 -3.52934e-26 -1.10502 -9.89405e-27 -0.774799)
(-0.827607 0.000603661 -1.68567e-27 -1.10315 -4.35297e-20 -0.772305)
(-0.845134 -0.00167017 -8.35802e-26 -1.10356 -2.09556e-20 -0.779478)
(-0.837552 -0.00223936 -7.70916e-26 -1.10224 1.16694e-27 -0.775917)
(-0.833089 -0.00100521 -3.32953e-26 -1.10343 -3.5826e-26 -0.774608)
(-0.828272 0.000376575 3.80934e-26 -1.10177 1.14914e-19 -0.772015)
(-0.844247 -0.00149906 7.69517e-26 -1.10194 4.1386e-21 -0.778474)
(-0.837991 -0.00197781 7.188e-26 -1.10074 -1.08806e-27 -0.775494)
(-0.834018 -0.00115266 -7.31146e-26 -1.10181 -4.88502e-26 -0.774333)
(-0.829238 0.000250075 -7.15927e-26 -1.10036 -7.8566e-20 -0.771839)
(-0.843515 -0.00139122 -8.27471e-26 -1.10024 2.13128e-20 -0.777503)
(-0.838318 -0.00179834 4.2352e-26 -1.09919 -6.37998e-27 -0.775004)
(-0.834851 -0.00120917 1.04956e-25 -1.10014 5.85459e-26 -0.773995)
(-0.830418 0.000190628 9.53765e-26 -1.09889 -1.5445e-21 -0.771724)
(-0.842888 -0.00132052 2.31166e-27 -1.09844 4.63422e-20 -0.776531)
(-0.8386 -0.00166843 8.02083e-26 -1.09755 1.0397e-26 -0.77446)
(-0.835651 -0.0012068 -3.96433e-26 -1.09837 5.88492e-27 -0.773607)
(-0.831757 0.000172135 -3.19e-26 -1.09732 6.42614e-20 -0.771632)
(-0.842325 -0.00126791 -1.17912e-27 -1.0965 -1.68229e-20 -0.775529)
(-0.838875 -0.00156385 -5.53661e-27 -1.09578 1.62826e-26 -0.773862)
(-0.836456 -0.00116786 -7.56986e-26 -1.09647 -3.02741e-26 -0.773169)
(-0.833208 0.000176468 -2.98494e-27 -1.09562 -6.10546e-20 -0.771531)
(-0.841828 -0.00123169 -1.58159e-25 -1.09434 -2.8123e-20 -0.774466)
(-0.839201 -0.00146504 1.46464e-25 -1.0938 1.05806e-26 -0.7732)
(-0.837338 -0.0010959 0 -1.09434 0 -0.772673)
(-0.834819 0.000209247 -5.06734e-28 -1.09371 -1.02391e-20 -0.77141)
(-0.841394 -0.00121545 2.4459e-27 -1.09195 3.43809e-20 -0.773338)
(-0.839577 -0.00138578 -8.38085e-26 -1.09161 -2.11631e-26 -0.772475)
(-0.838273 -0.00102219 0 -1.09201 0 -0.772115)
(-0.836503 0.000253171 -1.07766e-27 -1.09156 -2.18434e-20 -0.771227)
(-0.84108 -0.00119687 -1.69448e-27 -1.08954 -2.39274e-20 -0.772249)
(-0.840007 -0.00131034 8.38085e-26 -1.08939 2.11631e-26 -0.771757)
(-0.839228 -0.00094742 0 -1.08966 0 -0.771554)
(-0.838179 0.00029369 8.34618e-26 -1.08939 2.86896e-20 -0.771029)
(-0.840861 -0.00117885 -5.10449e-27 -1.0871 -7.29603e-20 -0.771184)
(-0.840482 -0.0012371 -9.18774e-26 -1.08712 -4.38261e-26 -0.771039)
(-0.840192 -0.00087131 1.79463e-25 -1.08727 1.19118e-25 -0.770983)
(-0.839822 0.000334748 -8.46523e-26 -1.08717 3.66928e-20 -0.770797)
(-0.840743 -0.0011598 -1.04583e-25 -1.08463 4.67544e-20 -0.770151)
(-0.841008 -0.00116463 -9.88541e-26 -1.08481 -4.8386e-26 -0.770328)
(-0.841175 -0.000795564 9.88541e-26 -1.08485 4.8386e-26 -0.770409)
(-0.841438 0.000374403 -9.96012e-26 -1.08491 -7.79607e-20 -0.770539)
(-0.840722 -0.00114003 -1.16234e-25 -1.08215 -2.06067e-20 -0.769149)
(-0.841582 -0.00109289 0 -1.08248 0 -0.769623)
(-0.842172 -0.00072054 0 -1.0824 0 -0.76983)
(-0.843023 0.000412755 1.95942e-25 -1.08261 5.72575e-20 -0.770254)
(-0.840797 -0.00111975 -1.3196e-28 -1.07965 -2.03645e-21 -0.768178)
(-0.842205 -0.00102198 1.19043e-25 -1.08011 4.41776e-26 -0.768926)
(-0.843185 -0.000646553 0 -1.07994 0 -0.76925)
(-0.844579 0.000449857 1.23324e-27 -1.08028 2.93753e-20 -0.769945)
(-0.840966 -0.00109911 -3.71624e-27 -1.07713 3.4256e-20 -0.767239)
(-0.842876 -0.000952027 -3.70404e-25 -1.07772 -1.23801e-25 -0.768238)
(-0.844214 -0.000573817 -5.85121e-27 -1.07746 1.32417e-26 -0.76867)
(-0.846106 0.000485733 -1.18158e-25 -1.07793 -4.18584e-20 -0.769613)
(-0.841229 -0.00107831 2.66305e-25 -1.0746 -1.71879e-20 -0.766333)
(-0.843596 -0.000883226 -1.7167e-27 -1.07531 -1.74788e-26 -0.76756)
(-0.845259 -0.0005025 3.74721e-25 -1.07496 2.41993e-25 -0.768089)
(-0.847604 0.000520435 1.23076e-25 -1.07554 2.68837e-20 -0.769259)
(-0.841584 -0.00105749 -1.36512e-25 -1.07207 2.95156e-20 -0.76546)
(-0.844363 -0.000815745 1.39919e-25 -1.07287 3.98153e-26 -0.766894)
(-0.84632 -0.000432754 0 -1.07246 0 -0.76751)
(-0.849075 0.000553992 -2.61331e-25 -1.07314 -3.24366e-20 -0.768885)
(-0.84203 -0.00103679 -1.45815e-25 -1.06952 -6.12958e-22 -0.76462)
(-0.845177 -0.000749751 0 -1.07042 0 -0.766238)
(-0.847398 -0.000364719 0 -1.06994 0 -0.766933)
(-0.85052 0.00058643 6.61311e-26 -1.07071 4.86716e-21 -0.768491)
(-0.842564 -0.00101634 -2.18094e-27 -1.06697 -4.30354e-20 -0.763814)
(-0.846039 -0.000685405 0 -1.06795 0 -0.765595)
(-0.848493 -0.000298529 0 -1.06741 0 -0.76636)
(-0.851939 0.000617759 3.31522e-27 -1.06826 1.0955e-20 -0.768079)
(-0.843186 -0.000996244 -1.6468e-25 -1.06441 5.18538e-20 -0.76304)
(-0.846947 -0.000622859 -7.99846e-26 -1.06546 -4.08917e-26 -0.764963)
(-0.849605 -0.000234314 -1.24181e-27 -1.06487 -8.29946e-27 -0.765789)
(-0.853336 0.000647983 -1.54963e-25 -1.06579 -2.14405e-21 -0.767651)
(-0.843895 -0.000976614 -1.38099e-27 -1.06185 -3.12959e-20 -0.762298)
(-0.847901 -0.000562262 0 -1.06296 0 -0.764345)
(-0.850736 -0.000172202 8.41718e-26 -1.06232 4.26115e-26 -0.765223)
(-0.854711 0.000677096 1.61905e-25 -1.0633 -1.08132e-20 -0.767207)
(-0.844687 -0.000957544 8.91586e-26 -1.05929 -2.01047e-20 -0.761589)
(-0.848902 -0.000503759 -1.81298e-25 -1.06045 -6.71761e-26 -0.763739)
(-0.851885 -0.000112319 -1.75319e-25 -1.05977 -1.03176e-25 -0.764662)
(-0.856067 0.000705086 5.5161e-30 -1.0608 3.13202e-22 -0.766748)
(-0.845562 -0.000939124 9.74086e-26 -1.05672 8.59099e-21 -0.760912)
(-0.849947 -0.000447487 9.13192e-26 -1.05792 3.768e-26 -0.763147)
(-0.853054 -5.47861e-05 -1.5046e-27 -1.05721 -8.00469e-27 -0.764106)
(-0.857406 0.000731936 -1.64813e-27 -1.05829 -3.15636e-21 -0.766277)
(-0.846517 -0.000921435 -9.5713e-26 -1.05415 4.01844e-20 -0.760266)
(-0.851038 -0.000393581 1.00051e-25 -1.05538 4.0591e-26 -0.762569)
(-0.854242 2.75152e-07 -1.46715e-25 -1.05465 -8.58956e-26 -0.763556)
(-0.858729 0.000757625 1.40618e-25 -1.05576 -2.31682e-20 -0.765794)
(-0.847551 -0.000904555 -9.44159e-28 -1.05158 -3.05126e-20 -0.759651)
(-0.852174 -0.000342169 -1.00051e-25 -1.05284 -4.0591e-26 -0.762004)
(-0.855451 5.275e-05 1.49025e-25 -1.05208 8.64904e-26 -0.763013)
(-0.860039 0.000782131 -7.48088e-26 -1.05321 3.41883e-20 -0.765301)
(-0.848661 -0.000888554 -1.11678e-27 -1.049 1.96083e-21 -0.759065)
(-0.853354 -0.000293369 -1.07393e-25 -1.05028 -3.52773e-26 -0.761453)
(-0.856682 0.00010253 -5.40404e-26 -1.04951 -2.86531e-26 -0.762476)
(-0.861339 0.000805428 -1.16442e-30 -1.05066 -2.50829e-22 -0.764798)
(-0.849845 -0.000873497 5.8028e-26 -1.04643 2.58894e-20 -0.758509)
(-0.854577 -0.00024729 -1.12365e-25 -1.04771 -4.73854e-26 -0.760916)
(-0.857934 0.000149515 1.9344e-25 -1.04693 9.93417e-26 -0.761947)
(-0.862631 0.000827495 -2.7524e-26 -1.04809 -1.69555e-20 -0.764288)
(-0.851102 -0.000859439 1.19449e-25 -1.04385 -1.92002e-20 -0.757981)
(-0.855845 -0.000204032 1.1475e-25 -1.04514 4.78505e-26 -0.760393)
(-0.85921 0.000193616 -1.14287e-25 -1.04435 -5.49358e-26 -0.761426)
(-0.863917 0.00084831 6.83652e-31 -1.04551 -5.02676e-22 -0.763772)
(-0.852427 -0.00084643 2.12734e-27 -1.04127 -1.26193e-20 -0.75748)
(-0.857155 -0.000163678 0 -1.04255 0 -0.759884)
(-0.86051 0.000234755 1.53371e-26 -1.04177 7.47014e-27 -0.760913)
(-0.865201 0.000867856 -1.5087e-28 -1.04293 3.60118e-20 -0.763251)
(-0.85382 -0.000834511 -1.25402e-25 -1.03869 7.1932e-21 -0.757006)
(-0.858507 -0.000126297 -4.7772e-26 -1.03996 -1.82598e-26 -0.759389)
(-0.861834 0.000272872 -7.63167e-27 -1.03919 -4.60087e-27 -0.760409)
(-0.866484 0.000886117 -7.79906e-27 -1.04033 -2.22458e-20 -0.762726)
(-0.855278 -0.000823714 3.36219e-26 -1.03611 1.10723e-20 -0.756557)
(-0.859901 -9.19415e-05 3.20822e-26 -1.03737 1.16194e-26 -0.758908)
(-0.863184 0.00030792 1.21374e-26 -1.0366 5.67101e-27 -0.759914)
(-0.86777 0.000903087 -5.67942e-26 -1.03773 -7.15158e-21 -0.762198)
(-0.856798 -0.000814064 -3.346e-26 -1.03353 1.11048e-21 -0.756133)
(-0.861336 -6.06439e-05 4.24048e-27 -1.03477 1.69202e-27 -0.758441)
(-0.86456 0.000339871 4.27033e-26 -1.03401 2.10012e-26 -0.759428)
(-0.869062 0.000918762 5.3351e-28 -1.03511 8.27796e-21 -0.76167)
(-0.858377 -0.000805574 2.6235e-26 -1.03095 -1.93005e-20 -0.755732)
(-0.862812 -3.24186e-05 4.49092e-27 -1.03216 1.49447e-27 -0.757987)
(-0.865963 0.000368717 1.78985e-26 -1.03142 9.36655e-27 -0.758953)
(-0.870362 0.000933147 -7.00564e-26 -1.03249 3.03097e-20 -0.761142)
(-0.860013 -0.000798252 5.05315e-26 -1.02837 2.82959e-20 -0.755353)
(-0.864328 -7.25959e-06 -5.96819e-26 -1.02954 -2.11771e-26 -0.757548)
(-0.867394 0.000394468 3.65623e-26 -1.02882 1.36767e-26 -0.758487)
(-0.871673 0.000946253 4.24143e-28 -1.02987 -2.6023e-20 -0.760616)
(-0.861703 -0.000792092 -1.42648e-26 -1.02579 -2.53663e-20 -0.754995)
(-0.865883 1.48592e-05 6.67276e-26 -1.02692 2.06349e-26 -0.757122)
(-0.868854 0.000417155 0 -1.02623 0 -0.758032)
(-0.872997 0.000958098 7.75972e-26 -1.02723 -2.04247e-20 -0.760092)
(-0.863445 -0.000787083 -3.99319e-26 -1.0232 2.29796e-20 -0.754658)
(-0.867477 3.3984e-05 -3.79177e-26 -1.0243 -1.37048e-26 -0.75671)
(-0.870343 0.000436829 1.19312e-25 -1.02363 4.44076e-26 -0.757587)
(-0.874338 0.000968708 7.97379e-26 -1.0246 1.89582e-20 -0.759573)
(-0.865236 -0.000783205 -6.98789e-28 -1.02061 -1.01889e-20 -0.754339)
(-0.869108 5.01805e-05 -4.07062e-26 -1.02167 -1.36831e-26 -0.756311)
(-0.871861 0.000453558 8.43349e-26 -1.02102 3.38381e-26 -0.757153)
(-0.875697 0.000978115 -8.18732e-26 -1.02195 1.8132e-20 -0.75906)
(-0.867073 -0.000780428 -4.27822e-26 -1.01802 1.00821e-21 -0.754038)
(-0.870777 6.35328e-05 4.13966e-26 -1.01903 1.20241e-26 -0.755925)
(-0.87341 0.000467431 2.90657e-27 -1.01842 -1.44357e-28 -0.756731)
(-0.877077 0.00098636 -1.6829e-25 -1.0193 -3.30805e-20 -0.758552)
(-0.868954 -0.000778717 -6.80707e-28 -1.01543 -2.68344e-20 -0.753753)
(-0.872481 7.41423e-05 -4.36506e-26 -1.0164 -1.68131e-26 -0.755551)
(-0.87499 0.000478553 -2.62016e-25 -1.01581 -1.00773e-25 -0.756319)
(-0.878481 0.000993489 3.49683e-25 -1.01665 2.05795e-21 -0.758052)
(-0.870876 -0.000778029 -9.14127e-26 -1.01283 1.5945e-20 -0.753484)
(-0.874221 8.21255e-05 0 -1.01376 0 -0.755191)
(-0.876601 0.000487045 -3.00627e-27 -1.0132 2.32625e-28 -0.755919)
(-0.87991 0.000999553 -4.81438e-28 -1.01399 1.84557e-20 -0.757561)
(-0.872837 -0.000778317 1.3905e-25 -1.01024 1.68529e-20 -0.753229)
(-0.875996 8.76122e-05 2.80623e-25 -1.01111 7.05168e-26 -0.754842)
(-0.878243 0.000493038 -1.88183e-25 -1.01058 -6.28397e-26 -0.755531)
(-0.881366 0.00100461 1.86933e-25 -1.01133 -5.55862e-21 -0.757079)
(-0.874834 -0.000779529 -1.91668e-25 -1.00764 -6.96896e-21 -0.752988)
(-0.877804 9.07433e-05 -9.31344e-26 -1.00846 -2.67194e-26 -0.754506)
(-0.879918 0.000496679 9.62059e-26 -1.00797 2.64649e-26 -0.755153)
(-0.882852 0.00100872 -6.65769e-29 -1.00867 2.35366e-21 -0.756607)
(-0.876865 -0.000781608 1.97878e-25 -1.00503 -6.39774e-21 -0.752759)
(-0.879645 9.16678e-05 3.1254e-27 -1.00581 -2.89769e-28 -0.754181)
(-0.881624 0.00049812 2.02131e-25 -1.00535 5.82084e-26 -0.754788)
(-0.884368 0.00101195 -2.02592e-25 -1.006 -8.74262e-21 -0.756146)
(-0.878927 -0.000784498 -4.96179e-26 -1.00243 1.19064e-20 -0.752541)
(-0.881518 9.05407e-05 -1.00747e-25 -1.00315 -2.28876e-26 -0.753868)
(-0.883361 0.000497521 -2.02131e-25 -1.00272 -5.82084e-26 -0.754433)
(-0.885916 0.00101437 1.9962e-25 -1.00333 1.17694e-20 -0.755696)
(-0.881019 -0.00078814 5.2498e-26 -0.999814 2.24171e-21 -0.752333)
(-0.883421 8.75198e-05 -2.11427e-25 -1.00049 -5.09218e-26 -0.753565)
(-0.885131 0.000495042 2.11427e-25 -1.00009 5.09218e-26 -0.75409)
(-0.887497 0.00101604 -3.36142e-27 -1.00065 -1.08386e-20 -0.755259)
(-0.883138 -0.000792476 5.41361e-26 -0.997199 -1.01751e-21 -0.752135)
(-0.885355 8.27638e-05 1.10452e-25 -0.997828 2.1831e-26 -0.753273)
(-0.886932 0.000490848 0 -0.997462 0 -0.753757)
(-0.889112 0.00101703 -1.54938e-28 -0.997971 4.93713e-21 -0.754833)
(-0.885282 -0.00079745 -1.11479e-25 -0.994578 -5.70152e-21 -0.751944)
(-0.887316 7.64288e-05 1.17144e-25 -0.995161 2.10178e-26 -0.752991)
(-0.888764 0.0004851 -2.25523e-25 -0.994825 -6.12888e-26 -0.753436)
(-0.890762 0.00101743 -6.43491e-28 -0.995289 -9.33002e-21 -0.75442)
(-0.887449 -0.000803008 2.42887e-29 -0.991953 -2.41702e-21 -0.751761)
(-0.889305 6.86671e-05 6.805e-27 -0.99249 -8.59878e-28 -0.752718)
(-0.890627 0.000477955 0 -0.992185 0 -0.753125)
(-0.892447 0.00101728 8.23611e-29 -0.992604 -2.54243e-21 -0.75402)
(-0.889636 -0.000809103 1.18609e-25 -0.989323 8.85366e-21 -0.751584)
(-0.891321 5.96243e-05 -3.53103e-25 -0.989814 -5.98072e-26 -0.752454)
(-0.892519 0.000469566 2.42271e-25 -0.989539 5.28188e-26 -0.752823)
(-0.894167 0.00101668 -5.28999e-28 -0.989915 1.61314e-20 -0.753633)
(-0.891843 -0.000815691 1.23857e-25 -0.986686 -1.27224e-20 -0.751411)
(-0.893361 4.94378e-05 2.45293e-25 -0.987135 4.64621e-26 -0.752198)
(-0.894441 0.000460078 -7.33869e-25 -0.986888 -1.57401e-25 -0.752531)
(-0.895923 0.00101567 4.94048e-25 -0.987222 -1.10453e-20 -0.753258)
(-0.894065 -0.000822735 -2.51079e-25 -0.984043 7.39243e-21 -0.751243)
(-0.895424 3.82358e-05 0 -0.98445 0 -0.75195)
(-0.896391 0.000449627 -5.09971e-25 -0.984231 -1.0765e-25 -0.752249)
(-0.897714 0.00101434 2.53287e-25 -0.984526 4.82897e-21 -0.752896)
(-0.896303 -0.000830208 -4.04659e-27 -0.981394 -4.56906e-21 -0.751079)
(-0.897509 2.61358e-05 1.29312e-25 -0.981761 1.64755e-26 -0.751708)
(-0.898368 0.00043834 -7.29356e-27 -0.981567 1.12415e-27 -0.751974)
(-0.899539 0.00101274 2.65465e-25 -0.981825 -1.5291e-20 -0.752545)
(-0.898553 -0.000838091 2.65887e-25 -0.978736 6.486e-21 -0.750916)
(-0.899615 1.32443e-05 -4.03112e-25 -0.979066 -5.31378e-26 -0.751472)
(-0.90037 0.000426335 -7.40665e-27 -0.978897 1.15085e-27 -0.751707)
(-0.901398 0.00101094 -2.65352e-25 -0.979119 1.1858e-20 -0.752207)
(-0.900813 -0.00084638 -1.34505e-25 -0.976071 -5.80033e-21 -0.750754)
(-0.901739 -3.44212e-07 2.70146e-25 -0.976364 3.71401e-26 -0.751241)
(-0.902398 0.000413725 5.49966e-25 -0.976219 9.56077e-26 -0.751447)
(-0.90329 0.00100903 7.89244e-29 -0.976407 -2.32146e-21 -0.751879)
(-0.903082 -0.000855084 -2.5911e-29 -0.973396 2.21152e-21 -0.750591)
(-0.90388 -1.45492e-05 0 -0.973655 0 -0.751014)
(-0.904448 0.000400613 -8.48251e-25 -0.973532 -1.4539e-25 -0.751192)
(-0.905213 0.00100707 2.83066e-25 -0.973689 1.85744e-21 -0.751561)
(-0.905357 -0.00086424 -1.44339e-25 -0.97071 4.47597e-21 -0.750427)
(-0.906036 -2.93089e-05 -1.48708e-25 -0.970938 -1.94302e-26 -0.75079)
(-0.90652 0.000387109 5.7721e-25 -0.970835 9.69103e-26 -0.750942)
(-0.907167 0.00100517 1.17914e-27 -0.970964 1.4695e-21 -0.751253)
(-0.907635 -0.000873925 4.18463e-29 -0.968013 -3.54726e-21 -0.750259)
(-0.908205 -4.45981e-05 2.92994e-25 -0.968211 3.39293e-26 -0.750566)
(-0.908611 0.00037334 -2.98648e-25 -0.968126 -4.96084e-26 -0.750695)
(-0.90915 0.00100347 -1.31084e-27 -0.96823 1.93778e-21 -0.750952)
(-0.909916 -0.000884294 -1.29107e-29 -0.965302 1.09512e-21 -0.750087)
(-0.910385 -6.04629e-05 0 -0.965472 0 -0.750343)
(-0.910719 0.000359492 -6.16563e-25 -0.965405 -9.06688e-26 -0.75045)
(-0.91116 0.00100216 -1.29013e-27 -0.965485 9.75342e-22 -0.750658)
(-0.912195 -0.000895688 4.714e-25 -0.962575 2.94761e-21 -0.749908)
(-0.912573 -7.71348e-05 3.16916e-25 -0.962719 3.0598e-26 -0.750117)
(-0.912844 0.000345924 3.06527e-25 -0.962667 4.8259e-26 -0.750204)
(-0.913195 0.00100165 -3.14509e-25 -0.962727 -3.51207e-21 -0.750369)
(-0.91447 -0.000908786 -4.76063e-25 -0.959829 1.13131e-21 -0.749719)
(-0.91477 -9.52123e-05 -4.78272e-25 -0.959949 -5.34525e-26 -0.749887)
(-0.914983 0.000333346 9.62461e-25 -0.95991 1.22071e-25 -0.749957)
(-0.915253 0.00100265 -3.22749e-25 -0.959953 -1.36147e-21 -0.750082)
(-0.916735 -0.000925179 -1.63758e-25 -0.957057 -4.80095e-21 -0.749517)
(-0.916972 -0.00011622 0 -0.957153 0 -0.74965)
(-0.917135 0.000323385 3.34649e-25 -0.957126 3.85991e-26 -0.749704)
(-0.917327 0.0010068 -5.18151e-29 -0.957157 1.49351e-21 -0.749794)
(-0.918987 -0.000947808 1.68523e-25 -0.954252 3.01011e-21 -0.749295)
(-0.919188 -0.000143001 -1.68557e-25 -0.954327 -1.13402e-26 -0.749406)
(-0.919308 0.000318959 -3.34649e-25 -0.95431 -3.85991e-26 -0.749447)
(-0.919414 0.00101707 1.19395e-30 -0.95433 -3.42764e-23 -0.749498)
(-0.921203 -0.000982769 -1.72774e-25 -0.951396 -3.75491e-21 -0.749039)
(-0.921418 -0.000180748 1.72816e-25 -0.951452 1.08067e-26 -0.749148)
(-0.921501 0.000325319 0 -0.951442 0 -0.749177)
(-0.921493 0.0010396 -1.61649e-29 -0.951456 4.61373e-22 -0.749179)
(-0.923377 -0.00103487 1.77137e-25 -0.948469 9.99652e-24 -0.748739)
(-0.923707 -0.000231232 -8.9178e-25 -0.948531 -6.57035e-26 -0.748895)
(-0.923761 0.000344226 3.55426e-25 -0.948528 3.04788e-26 -0.748916)
(-0.923557 0.00107918 -3.24873e-29 -0.948514 9.21376e-22 -0.748828)
(-0.925427 -0.00109257 2.6541e-30 -0.945433 -2.46038e-22 -0.748344)
(-0.926007 -0.000280007 1.09147e-24 -0.945563 7.80503e-26 -0.748628)
(-0.926038 0.00036128 -3.642e-25 -0.945564 -2.92809e-26 -0.748641)
(-0.925525 0.00112428 -1.80194e-29 -0.945466 5.09729e-22 -0.748396)
(-0.927509 -0.000999058 -7.27992e-30 -0.942428 5.92602e-22 -0.747975)
(-0.928449 -0.000240629 -3.68055e-25 -0.942898 -2.38188e-26 -0.748539)
(-0.928464 0.000289774 3.89221e-27 -0.942901 -5.45322e-27 -0.748546)
(-0.927551 0.00101812 3.7439e-25 -0.942452 -2.11807e-21 -0.748001)
(-0.929417 -0.000490726 -3.15356e-22 -0.94046 -4.19046e-22 -0.747951)
(-0.930075 -5.96012e-05 -1.32624e-22 -0.941353 -2.7978e-30 -0.748571)
(-0.930081 7.58886e-05 9.39598e-23 -0.941354 -3.22962e-26 -0.748574)
(-0.929435 0.000499495 6.6406e-22 -0.940478 2.66554e-22 -0.747965)
)
;

boundaryField
{
    plateFix
    {
        type            calculated;
        value           nonuniform List<symmTensor> 4((-0.762129 0.227802 -9.44926e-26 -0.790904 -1.01068e-19 -0.621213) (-0.929128 0.0839888 -5.34505e-29 -0.702607 -1.24391e-32 -0.652694) (-0.920926 -0.0835175 -2.55161e-26 -0.69924 -1.68955e-26 -0.648066) (-0.723089 -0.234299 -1.50399e-25 -0.776931 -1.18745e-19 -0.600008));
    }
    plate
    {
        type            calculated;
        value           nonuniform List<symmTensor> 
168
(
(-0.979734 -4.0767e-05 2.98204e-25 -1.11063 -2.08226e-19 -0.836145)
(-0.950162 2.55215e-05 -6.11246e-25 -1.11082 -2.3749e-19 -0.824393)
(-0.956343 -8.66784e-05 -9.85098e-25 -1.1107 8.40288e-19 -0.826816)
(-0.925822 7.01484e-05 -6.90234e-26 -1.11089 -2.8234e-19 -0.814686)
(-0.922103 -0.000152834 7.82248e-25 -1.11069 -1.66583e-19 -0.813117)
(-0.890572 0.00013591 6.56611e-25 -1.11089 1.29846e-19 -0.800583)
(-0.907233 -0.000222471 -1.06274e-24 -1.11061 2.29706e-19 -0.807138)
(-0.875679 0.000205571 -4.35201e-25 -1.11081 -2.89253e-19 -0.794596)
(-0.894533 -0.000287842 9.54753e-25 -1.11048 -4.54391e-19 -0.802004)
(-0.863252 0.00027127 -2.44204e-25 -1.11068 4.60965e-20 -0.789572)
(-0.886374 -0.000347339 -7.01195e-25 -1.11028 3.66181e-19 -0.798663)
(-0.855702 0.000331303 5.14186e-28 -1.11049 4.87845e-19 -0.786475)
(-0.879303 -0.000400933 1.72502e-25 -1.11003 -4.97393e-19 -0.795735)
(-0.849415 0.000385558 1.80165e-25 -1.11024 5.19404e-20 -0.783861)
(-0.873301 -0.000449058 -5.62046e-26 -1.10972 3.84221e-19 -0.79321)
(-0.844338 0.000434396 5.61713e-26 -1.10993 -2.70912e-19 -0.781706)
(-0.867806 -0.00049223 1.89877e-25 -1.10935 -4.33072e-20 -0.790862)
(-0.839866 0.000478274 2.58875e-26 -1.10955 1.71234e-19 -0.779767)
(-0.862891 -0.000530836 -6.11989e-26 -1.1089 -3.05311e-19 -0.788718)
(-0.836055 0.000517541 -1.04999e-25 -1.10911 -7.92128e-20 -0.778066)
(-0.858564 -0.000565133 3.15807e-26 -1.10838 1.45574e-19 -0.786779)
(-0.832904 0.000552425 -3.66735e-27 -1.10859 1.10932e-19 -0.776598)
(-0.854891 -0.000595276 -4.23844e-26 -1.10779 6.73806e-20 -0.78507)
(-0.830477 0.000583072 2.3981e-27 -1.10799 8.57801e-20 -0.775388)
(-0.851872 -0.000621365 1.49999e-26 -1.1071 -3.31455e-20 -0.783589)
(-0.828772 0.000609576 3.70515e-27 -1.10731 -1.27948e-19 -0.774432)
(-0.849469 -0.000643471 -1.83532e-26 -1.10632 2.18462e-20 -0.782317)
(-0.82775 0.000632016 5.96509e-27 -1.10653 -4.40822e-20 -0.773712)
(-0.8476 -0.000661658 1.06024e-26 -1.10545 -1.57264e-19 -0.781219)
(-0.82733 0.000650462 -7.16007e-26 -1.10565 -2.56418e-20 -0.773194)
(-0.846165 -0.000675997 7.77985e-26 -1.10446 -3.72173e-20 -0.780251)
(-0.82741 0.000664999 4.66565e-26 -1.10467 6.61351e-20 -0.772833)
(-0.845059 -0.000686566 -1.05786e-25 -1.10336 1.51563e-19 -0.779369)
(-0.827887 0.000675717 -3.4033e-27 -1.10357 -8.78849e-20 -0.772584)
(-0.84419 -0.000693463 -8.49027e-26 -1.10214 -4.16211e-20 -0.778533)
(-0.828664 0.000682724 4.28354e-26 -1.10235 2.28482e-19 -0.772406)
(-0.843483 -0.000696793 7.72071e-26 -1.10079 8.02386e-21 -0.77771)
(-0.829664 0.000686129 -7.51209e-26 -1.101 -1.58222e-19 -0.772266)
(-0.842886 -0.000696696 -8.1261e-26 -1.0993 4.33507e-20 -0.776874)
(-0.830829 0.000686079 9.54113e-26 -1.09951 6.16138e-22 -0.772135)
(-0.842367 -0.000693132 5.50509e-27 -1.09766 9.26834e-20 -0.77601)
(-0.832121 0.000682527 -2.90709e-26 -1.09787 1.23363e-19 -0.771995)
(-0.8419 -0.000685463 -2.49108e-27 -1.09586 -3.55409e-20 -0.775103)
(-0.833507 0.000674832 -5.88753e-27 -1.09607 -1.20425e-19 -0.77183)
(-0.841502 -0.000689619 -1.6031e-25 -1.09385 -5.69757e-20 -0.77414)
(-0.835054 0.000678911 -1.01347e-27 -1.09406 -2.04782e-20 -0.771645)
(-0.841152 -0.000707135 4.98312e-27 -1.09159 7.00455e-20 -0.773095)
(-0.836656 0.000696297 -2.06967e-27 -1.0918 -4.19506e-20 -0.771381)
(-0.840917 -0.000718851 -3.47939e-27 -1.0893 -4.91318e-20 -0.772086)
(-0.838256 0.000707821 8.47529e-26 -1.08951 5.51856e-20 -0.771106)
(-0.840772 -0.000729711 -9.98853e-27 -1.08697 -1.4277e-19 -0.771095)
(-0.839826 0.000718441 -8.30198e-26 -1.08718 7.25648e-20 -0.770801)
(-0.840722 -0.000738955 -1.01674e-25 -1.0846 9.03627e-20 -0.77013)
(-0.841373 0.000727408 -1.03072e-25 -1.08481 -1.53229e-19 -0.770474)
(-0.840765 -0.000747037 -1.17545e-25 -1.08221 -3.90271e-20 -0.769191)
(-0.842895 0.000735191 1.9832e-25 -1.08242 1.12508e-19 -0.770127)
(-0.840898 -0.000754148 -2.01998e-28 -1.0798 -3.1173e-21 -0.768278)
(-0.844393 0.000741999 2.43792e-27 -1.08001 5.80704e-20 -0.769759)
(-0.84112 -0.000760433 -1.65827e-27 -1.07736 6.72382e-20 -0.767393)
(-0.845866 0.000747992 -1.1976e-25 -1.07757 -8.24429e-20 -0.769374)
(-0.841432 -0.000766008 2.65409e-25 -1.07491 -3.32202e-20 -0.766536)
(-0.847316 0.000753302 1.23993e-25 -1.07511 5.31326e-20 -0.768971)
(-0.841831 -0.000770969 -1.34965e-25 -1.07244 5.7717e-20 -0.765707)
(-0.848743 0.000758037 -2.62418e-25 -1.07264 -6.4577e-20 -0.768553)
(-0.842315 -0.000775396 -1.45801e-25 -1.06995 -3.66868e-22 -0.764906)
(-0.850148 0.000762285 6.6321e-26 -1.07015 1.04816e-20 -0.768119)
(-0.842885 -0.000779353 -4.3185e-27 -1.06745 -8.52148e-20 -0.764134)
(-0.851533 0.000766117 3.61222e-27 -1.06765 2.12085e-20 -0.767673)
(-0.843537 -0.000782898 -1.62375e-25 -1.06494 1.0136e-19 -0.76339)
(-0.852899 0.000769594 -1.5499e-25 -1.06514 -3.22613e-21 -0.767214)
(-0.844271 -0.00078608 -2.69934e-27 -1.06242 -6.11722e-20 -0.762675)
(-0.854248 0.000772766 1.61631e-25 -1.06261 -2.38812e-20 -0.766743)
(-0.845086 -0.000788942 8.83474e-26 -1.05988 -3.99866e-20 -0.761988)
(-0.855582 0.000775672 4.1185e-29 -1.06008 2.33847e-21 -0.766263)
(-0.845979 -0.000791522 9.7696e-26 -1.05734 1.6259e-20 -0.761329)
(-0.856902 0.000778348 -1.69423e-27 -1.05753 -6.38119e-21 -0.765774)
(-0.846948 -0.000793853 -9.43293e-26 -1.05479 8.06607e-20 -0.760697)
(-0.858211 0.000780823 1.40371e-25 -1.05498 -4.56409e-20 -0.765276)
(-0.847993 -0.000795966 -1.91675e-27 -1.05224 -6.19442e-20 -0.760092)
(-0.859511 0.000783119 -7.45563e-26 -1.05242 6.66052e-20 -0.764772)
(-0.84911 -0.000797886 -1.05822e-27 -1.04968 4.39402e-21 -0.759514)
(-0.860803 0.00078526 2.25367e-30 -1.04985 4.85463e-22 -0.764263)
(-0.850298 -0.000799637 5.86518e-26 -1.04711 5.1154e-20 -0.758962)
(-0.862091 0.000787261 -2.75487e-26 -1.04728 -3.25049e-20 -0.763749)
(-0.851556 -0.00080124 1.19074e-25 -1.04453 -3.67042e-20 -0.758435)
(-0.863376 0.00078914 1.2805e-30 -1.0447 -9.41529e-22 -0.763231)
(-0.852879 -0.000802713 1.86803e-27 -1.04195 -2.63762e-20 -0.757932)
(-0.864662 0.000790911 -2.92672e-28 -1.04212 6.98591e-20 -0.762712)
(-0.854268 -0.000804074 -1.25283e-25 -1.03937 1.46764e-20 -0.757453)
(-0.86595 0.000792585 -7.6496e-27 -1.03953 -4.39346e-20 -0.762191)
(-0.855719 -0.000805337 3.37705e-26 -1.03678 2.20774e-20 -0.756998)
(-0.867243 0.000794175 -5.67385e-26 -1.03693 -1.36139e-20 -0.761671)
(-0.857229 -0.000806515 -3.34363e-26 -1.03418 3.26458e-21 -0.756564)
(-0.868544 0.000795691 4.61523e-28 -1.03434 1.43359e-20 -0.761152)
(-0.858797 -0.00080762 2.60636e-26 -1.03158 -3.89584e-20 -0.756152)
(-0.869855 0.000797142 -7.05124e-26 -1.03173 6.25065e-20 -0.760635)
(-0.86042 -0.000808664 5.07123e-26 -1.02898 5.59711e-20 -0.75576)
(-0.871179 0.000798538 8.67763e-28 -1.02913 -5.32411e-20 -0.760122)
(-0.862096 -0.000809656 -1.43815e-26 -1.02637 -5.12401e-20 -0.755388)
(-0.872518 0.000799888 7.79529e-26 -1.02652 -3.98749e-20 -0.759614)
(-0.863822 -0.000810605 -3.9872e-26 -1.02376 4.57833e-20 -0.755034)
(-0.873875 0.000801199 7.93867e-26 -1.0239 3.72322e-20 -0.759111)