/*--------------------------------*- C++ -*----------------------------------*\
| =========                 |                                                 |
| \\      /  F ield         | foam-extend: Open Source CFD                    |
|  \\    /   O peration     | Version:     3.1                                |
|   \\  /    A nd           | Web:         http://www.extend-project.de       |
|    \\/     M anipulation  |                                                 |
\*---------------------------------------------------------------------------*/
FoamFile
{
    version     2.0;
    format      ascii;
    class       volVectorField;
    location    "0.005";
    object      DU;
}
// * * * * * * * * * * * * * * * * * * * * * * * * * * * * * * * * * * * * * //

dimensions      [0 1 0 0 0 0 0];

internalField   nonuniform List<vector> 
328
(
(-7.04581e-11 4.11781e-10 0)
(-1.38216e-10 8.72869e-11 0)
(-1.36429e-10 -8.73508e-11 0)
(-6.15406e-11 -4.24447e-10 0)
(-2.22025e-10 1.0553e-09 0)
(-3.91746e-10 2.52294e-10 0)
(-3.85505e-10 -2.57729e-10 0)
(-1.94658e-10 -1.08997e-09 0)
(-3.47379e-10 1.53142e-09 0)
(-5.7709e-10 4.05258e-10 0)
(-5.64482e-10 -4.21846e-10 0)
(-2.9892e-10 -1.58739e-09 0)
(-4.72752e-10 1.86595e-09 0)
(-7.32609e-10 5.33426e-10 0)
(-7.12744e-10 -5.67124e-10 0)
(-4.01625e-10 -1.94452e-09 0)
(-5.9421e-10 2.09264e-09 0)
(-8.54405e-10 6.32069e-10 0)
(-8.26387e-10 -6.89092e-10 0)
(-4.98785e-10 -2.19704e-09 0)
(-7.17676e-10 2.23733e-09 0)
(-9.57407e-10 6.99537e-10 0)
(-9.2067e-10 -7.86686e-10 0)
(-5.96622e-10 -2.37247e-09 0)
(-8.43212e-10 2.32119e-09 0)
(-1.04672e-09 7.37852e-10 0)
(-1.00078e-09 -8.62697e-10 0)
(-6.95284e-10 -2.49352e-09 0)
(-9.72164e-10 2.35986e-09 0)
(-1.13056e-09 7.50398e-10 0)
(-1.07502e-09 -9.21492e-10 0)
(-7.96239e-10 -2.57728e-09 0)
(-1.1048e-09 2.36534e-09 0)
(-1.21412e-09 7.41415e-10 0)
(-1.14866e-09 -9.6847e-10 0)
(-8.99841e-10 -2.63718e-09 0)
(-1.24172e-09 2.34636e-09 0)
(-1.30234e-09 7.14944e-10 0)
(-1.22667e-09 -1.00901e-09 0)
(-1.00677e-09 -2.68345e-09 0)
(-1.3835e-09 2.3092e-09 0)
(-1.39866e-09 6.7445e-10 0)
(-1.31254e-09 -1.04806e-09 0)
(-1.11774e-09 -2.72394e-09 0)
(-1.53102e-09 2.25808e-09 0)
(-1.50572e-09 6.22474e-10 0)
(-1.40893e-09 -1.08982e-09 0)
(-1.23371e-09 -2.76454e-09 0)
(-1.68531e-09 2.19555e-09 0)
(-1.62526e-09 5.60579e-10 0)
(-1.51765e-09 -1.13767e-09 0)
(-1.3559e-09 -2.80964e-09 0)
(-1.84762e-09 2.12283e-09 0)
(-1.75844e-09 4.89391e-10 0)
(-1.63989e-09 -1.19418e-09 0)
(-1.48571e-09 -2.86241e-09 0)
(-2.01928e-09 2.04008e-09 0)
(-1.90601e-09 4.08755e-10 0)
(-1.77649e-09 -1.2613e-09 0)
(-1.6247e-09 -2.92512e-09 0)
(-2.20172e-09 1.94673e-09 0)
(-2.06856e-09 3.17917e-10 0)
(-1.92809e-09 -1.3405e-09 0)
(-1.77456e-09 -2.9994e-09 0)
(-2.3964e-09 1.84168e-09 0)
(-2.24664e-09 2.15723e-10 0)
(-2.09537e-09 -1.43295e-09 0)
(-1.93706e-09 -3.0865e-09 0)
(-2.60483e-09 1.72357e-09 0)
(-2.44095e-09 1.00796e-10 0)
(-2.27913e-09 -1.53966e-09 0)
(-2.11404e-09 -3.18743e-09 0)
(-2.82855e-09 1.5909e-09 0)
(-2.65241e-09 -2.83265e-11 0)
(-2.48042e-09 -1.6616e-09 0)
(-2.30745e-09 -3.30314e-09 0)
(-3.06915e-09 1.44219e-09 0)
(-2.88222e-09 -1.73083e-10 0)
(-2.70059e-09 -1.79969e-09 0)
(-2.51937e-09 -3.4345e-09 0)
(-3.32835e-09 1.27604e-09 0)
(-3.13186e-09 -3.34807e-10 0)
(-2.9413e-09 -1.95485e-09 0)
(-2.752e-09 -3.58239e-09 0)
(-3.60801e-09 1.09123e-09 0)
(-3.40314e-09 -5.14668e-10 0)
(-3.20455e-09 -2.12795e-09 0)
(-3.00778e-09 -3.74764e-09 0)
(-3.92164e-09 8.78981e-10 0)
(-3.7094e-09 -7.21188e-10 0)
(-3.50361e-09 -2.32701e-09 0)
(-3.30009e-09 -3.9379e-09 0)
(-4.2606e-09 6.45512e-10 0)
(-4.04262e-09 -9.48154e-10 0)
(-3.83115e-09 -2.54584e-09 0)
(-3.62228e-09 -4.14714e-09 0)
(-4.60328e-09 4.07795e-10 0)
(-4.38148e-09 -1.17908e-09 0)
(-4.16624e-09 -2.76848e-09 0)
(-3.95387e-09 -4.36011e-09 0)
(-4.95e-09 1.67668e-10 0)
(-4.7262e-09 -1.41213e-09 0)
(-4.50895e-09 -2.9931e-09 0)
(-4.29485e-09 -4.57495e-09 0)
(-5.30114e-09 -7.31304e-11 0)
(-5.077e-09 -1.6456e-09 0)
(-4.85942e-09 -3.21797e-09 0)
(-4.64521e-09 -4.78998e-09 0)
(-5.65703e-09 -3.12982e-10 0)
(-5.43411e-09 -1.87788e-09 0)
(-5.21773e-09 -3.4415e-09 0)
(-5.00495e-09 -5.00361e-09 0)
(-6.018e-09 -5.50394e-10 0)
(-5.79772e-09 -2.10749e-09 0)
(-5.58397e-09 -3.66223e-09 0)
(-5.37405e-09 -5.21439e-09 0)
(-6.38437e-09 -7.83991e-10 0)
(-6.16805e-09 -2.33307e-09 0)
(-5.95824e-09 -3.8788e-09 0)
(-5.75246e-09 -5.42097e-09 0)
(-6.75644e-09 -1.01252e-09 0)
(-6.54528e-09 -2.55336e-09 0)
(-6.3406e-09 -4.08997e-09 0)
(-6.14017e-09 -5.62211e-09 0)
(-7.13451e-09 -1.23483e-09 0)
(-6.9296e-09 -2.76725e-09 0)
(-6.73115e-09 -4.29461e-09 0)
(-6.53714e-09 -5.8167e-09 0)
(-7.51888e-09 -1.44991e-09 0)
(-7.32119e-09 -2.9737e-09 0)
(-7.12994e-09 -4.49171e-09 0)
(-6.94334e-09 -6.00372e-09 0)
(-7.90982e-09 -1.65683e-09 0)
(-7.72023e-09 -3.17181e-09 0)
(-7.53706e-09 -4.68036e-09 0)
(-7.35872e-09 -6.18227e-09 0)
(-8.30762e-09 -1.85479e-09 0)
(-8.1269e-09 -3.36078e-09 0)
(-7.95257e-09 -4.85977e-09 0)
(-7.78326e-09 -6.35156e-09 0)
(-8.71255e-09 -2.04308e-09 0)
(-8.54136e-09 -3.5399e-09 0)
(-8.37654e-09 -5.02923e-09 0)
(-8.21692e-09 -6.51088e-09 0)
(-9.12487e-09 -2.22109e-09 0)
(-8.96378e-09 -3.70858e-09 0)
(-8.80905e-09 -5.18816e-09 0)
(-8.65968e-09 -6.65965e-09 0)
(-9.54484e-09 -2.38832e-09 0)
(-9.39432e-09 -3.86631e-09 0)
(-9.25015e-09 -5.33606e-09 0)
(-9.11152e-09 -6.79736e-09 0)
(-9.9727e-09 -2.54436e-09 0)
(-9.83314e-09 -4.01269e-09 0)
(-9.69992e-09 -5.47251e-09 0)
(-9.57241e-09 -6.92361e-09 0)
(-1.04087e-08 -2.68888e-09 0)
(-1.02804e-08 -4.1474e-09 0)
(-1.01584e-08 -5.5972e-09 0)
(-1.00423e-08 -7.03808e-09 0)
(-1.08531e-08 -2.82165e-09 0)
(-1.07363e-08 -4.27021e-09 0)
(-1.06258e-08 -5.70991e-09 0)
(-1.05213e-08 -7.14054e-09 0)
(-1.13061e-08 -2.94251e-09 0)
(-1.12009e-08 -4.38097e-09 0)
(-1.1102e-08 -5.81047e-09 0)
(-1.10093e-08 -7.23083e-09 0)
(-1.17679e-08 -3.05138e-09 0)
(-1.16744e-08 -4.47959e-09 0)
(-1.15871e-08 -5.89882e-09 0)
(-1.15062e-08 -7.30888e-09 0)
(-1.22387e-08 -3.14825e-09 0)
(-1.21569e-08 -4.56609e-09 0)
(-1.20813e-08 -5.97496e-09 0)
(-1.20123e-08 -7.37468e-09 0)
(-1.27189e-08 -3.23319e-09 0)
(-1.26486e-08 -4.64051e-09 0)
(-1.25847e-08 -6.03895e-09 0)
(-1.25274e-08 -7.42831e-09 0)
(-1.32084e-08 -3.30632e-09 0)
(-1.31496e-08 -4.70301e-09 0)
(-1.30972e-08 -6.09092e-09 0)
(-1.30515e-08 -7.46988e-09 0)
(-1.37076e-08 -3.36782e-09 0)
(-1.36601e-08 -4.75375e-09 0)
(-1.3619e-08 -6.13107e-09 0)
(-1.35847e-08 -7.49957e-09 0)
(-1.42166e-08 -3.41793e-09 0)
(-1.41802e-08 -4.79298e-09 0)
(-1.41502e-08 -6.15961e-09 0)
(-1.41271e-08 -7.51763e-09 0)
(-1.47357e-08 -3.45692e-09 0)
(-1.471e-08 -4.82099e-09 0)
(-1.46908e-08 -6.17686e-09 0)
(-1.46787e-08 -7.52434e-09 0)
(-1.52649e-08 -3.48512e-09 0)
(-1.52497e-08 -4.83809e-09 0)
(-1.5241e-08 -6.18312e-09 0)
(-1.52394e-08 -7.52003e-09 0)
(-1.58044e-08 -3.5029e-09 0)
(-1.57993e-08 -4.84466e-09 0)
(-1.58008e-08 -6.17877e-09 0)
(-1.58095e-08 -7.50504e-09 0)
(-1.63545e-08 -3.51064e-09 0)
(-1.63591e-08 -4.8411e-09 0)
(-1.63703e-08 -6.16421e-09 0)
(-1.63889e-08 -7.47979e-09 0)
(-1.69152e-08 -3.50876e-09 0)
(-1.69291e-08 -4.82783e-09 0)
(-1.69496e-08 -6.13986e-09 0)
(-1.69777e-08 -7.44469e-09 0)
(-1.74866e-08 -3.49772e-09 0)
(-1.75094e-08 -4.80529e-09 0)
(-1.75389e-08 -6.10617e-09 0)
(-1.7576e-08 -7.40018e-09 0)
(-1.8069e-08 -3.47796e-09 0)
(-1.81002e-08 -4.77395e-09 0)
(-1.81382e-08 -6.06361e-09 0)
(-1.81839e-08 -7.34673e-09 0)
(-1.86624e-08 -3.44997e-09 0)
(-1.87016e-08 -4.7343e-09 0)
(-1.87476e-08 -6.01264e-09 0)
(-1.88014e-08 -7.28482e-09 0)
(-1.92669e-08 -3.41422e-09 0)
(-1.93137e-08 -4.68681e-09 0)
(-1.93673e-08 -5.95377e-09 0)
(-1.94287e-08 -7.21493e-09 0)
(-1.98827e-08 -3.37122e-09 0)
(-1.99365e-08 -4.63198e-09 0)
(-1.99972e-08 -5.88748e-09 0)
(-2.00658e-08 -7.13755e-09 0)
(-2.05099e-08 -3.32144e-09 0)
(-2.05703e-08 -4.5703e-09 0)
(-2.06376e-08 -5.81428e-09 0)
(-2.07129e-08 -7.05318e-09 0)
(-2.11486e-08 -3.26538e-09 0)
(-2.1215e-08 -4.50227e-09 0)
(-2.12885e-08 -5.73464e-09 0)
(-2.13701e-08 -6.96231e-09 0)
(-2.17988e-08 -3.20352e-09 0)
(-2.18709e-08 -4.42838e-09 0)
(-2.19501e-08 -5.64907e-09 0)
(-2.20374e-08 -6.86542e-09 0)
(-2.24607e-08 -3.13634e-09 0)
(-2.25379e-08 -4.34909e-09 0)
(-2.26224e-08 -5.55803e-09 0)
(-2.2715e-08 -6.76299e-09 0)
(-2.31343e-08 -3.0643e-09 0)
(-2.32163e-08 -4.26489e-09 0)
(-2.33055e-08 -5.46201e-09 0)
(-2.3403e-08 -6.65549e-09 0)
(-2.38197e-08 -2.98786e-09 0)
(-2.3906e-08 -4.17623e-09 0)
(-2.39996e-08 -5.36146e-09 0)
(-2.41014e-08 -6.54339e-09 0)
(-2.4517e-08 -2.90746e-09 0)
(-2.46071e-08 -4.08355e-09 0)
(-2.47047e-08 -5.25682e-09 0)
(-2.48105e-08 -6.42711e-09 0)
(-2.52262e-08 -2.82351e-09 0)
(-2.53198e-08 -3.98727e-09 0)
(-2.54209e-08 -5.14851e-09 0)
(-2.55303e-08 -6.30709e-09 0)
(-2.59475e-08 -2.73643e-09 0)
(-2.60441e-08 -3.8878e-09 0)
(-2.61484e-08 -5.03695e-09 0)
(-2.6261e-08 -6.18373e-09 0)
(-2.66808e-08 -2.64659e-09 0)
(-2.67801e-08 -3.78553e-09 0)
(-2.68871e-08 -4.92252e-09 0)
(-2.70026e-08 -6.05743e-09 0)
(-2.74262e-08 -2.55437e-09 0)
(-2.75279e-08 -3.68082e-09 0)
(-2.76373e-08 -4.8056e-09 0)
(-2.77552e-08 -5.92854e-09 0)
(-2.81837e-08 -2.4601e-09 0)
(-2.82875e-08 -3.57402e-09 0)
(-2.8399e-08 -4.68651e-09 0)
(-2.85191e-08 -5.79742e-09 0)
(-2.89535e-08 -2.36411e-09 0)
(-2.90589e-08 -3.46546e-09 0)
(-2.91723e-08 -4.5656e-09 0)
(-2.92942e-08 -5.66439e-09 0)
(-2.97354e-08 -2.2667e-09 0)
(-2.98424e-08 -3.35542e-09 0)
(-2.99573e-08 -4.44315e-09 0)
(-3.00807e-08 -5.52974e-09 0)
(-3.05297e-08 -2.16814e-09 0)
(-3.06378e-08 -3.2442e-09 0)
(-3.0754e-08 -4.31944e-09 0)
(-3.08786e-08 -5.39374e-09 0)
(-3.13362e-08 -2.0687e-09 0)
(-3.14453e-08 -3.13203e-09 0)
(-3.15625e-08 -4.19472e-09 0)
(-3.16882e-08 -5.25666e-09 0)
(-3.21551e-08 -1.9686e-09 0)
(-3.22649e-08 -3.01916e-09 0)
(-3.23829e-08 -4.06921e-09 0)
(-3.25095e-08 -5.11868e-09 0)
(-3.29863e-08 -1.86808e-09 0)
(-3.30967e-08 -2.90579e-09 0)
(-3.32153e-08 -3.9431e-09 0)
(-3.33425e-08 -4.98001e-09 0)
(-3.38299e-08 -1.76734e-09 0)
(-3.39408e-08 -2.79214e-09 0)
(-3.40598e-08 -3.81655e-09 0)
(-3.41874e-08 -4.84077e-09 0)
(-3.46859e-08 -1.66662e-09 0)
(-3.47972e-08 -2.67839e-09 0)
(-3.49166e-08 -3.68966e-09 0)
(-3.50444e-08 -4.70104e-09 0)
(-3.55543e-08 -1.56614e-09 0)
(-3.56662e-08 -2.56472e-09 0)
(-3.57858e-08 -3.5625e-09 0)
(-3.59133e-08 -4.56084e-09 0)
(-3.64351e-08 -1.46592e-09 0)
(-3.65481e-08 -2.45114e-09 0)
(-3.66678e-08 -3.43527e-09 0)
(-3.67944e-08 -4.42037e-09 0)
(-3.73279e-08 -1.36498e-09 0)
(-3.74428e-08 -2.33721e-09 0)
(-3.75626e-08 -3.30857e-09 0)
(-3.76874e-08 -4.28076e-09 0)
(-3.82332e-08 -1.25667e-09 0)
(-3.835e-08 -2.22093e-09 0)
(-3.84698e-08 -3.18449e-09 0)
(-3.85927e-08 -4.14873e-09 0)
)
;

boundaryField
{
    plateFix
    {
        type            fixedValue;
        value           uniform (0 0 0);
    }
    plate
    {
        type            solidTraction;
        nonLinear       updatedLagrangian;
        traction        nonuniform List<vector> 
168
(
(7.73955e-05 0.000123478 4.39869e-19)
(7.73629e-05 -0.000123503 0)
(0.000247854 0.000205946 0)
(0.000247879 -0.000206025 9.94522e-25)
(0.000464899 0.000205291 4.65585e-19)
(0.000465002 -0.000205376 3.10473e-20)
(0.000682215 0.000176885 -4.99556e-19)
(0.000682398 -0.00017696 2.93905e-20)
(0.000880895 0.000144753 0)
(0.000881149 -0.000144815 -4.21854e-25)
(0.00105903 0.00011643 -3.87572e-19)
(0.00105935 -0.000116479 4.39329e-19)
(0.00121794 9.31476e-05 3.84192e-19)
(0.00121832 -9.31853e-05 -7.6841e-19)
(0.00135934 7.41499e-05 0)
(0.00135977 -7.41772e-05 3.54858e-19)
(0.00148484 5.83937e-05 3.25592e-19)
(0.00148532 -5.84107e-05 0)
(0.00159563 4.50726e-05 -3.34425e-19)
(0.00159617 -4.50786e-05 7.08713e-26)
(0.00169256 3.36604e-05 -2.69637e-19)
(0.00169315 -3.36542e-05 0)
(0.00177623 2.38291e-05 1.40744e-22)
(0.00177688 -2.38092e-05 0)
(0.00184711 1.53683e-05 2.18548e-19)
(0.00184781 -1.53329e-05 -5.46352e-20)
(0.0019056 8.1315e-06 0)
(0.00190636 -8.0785e-06 4.87861e-20)
(0.00195209 2.00462e-06 2.16584e-19)
(0.0019529 -1.93169e-06 -4.13297e-26)
(0.00198696 -3.11139e-06 -1.91619e-19)
(0.00198782 3.20685e-06 1.53185e-19)
(0.00201065 -7.31095e-06 -6.74281e-20)
(0.00201157 7.43169e-06 -1.41532e-22)
(0.00202362 -1.06905e-05 0)
(0.00202459 1.08395e-05 1.17919e-19)
(0.00202635 -1.33559e-05 0)
(0.00202738 1.35363e-05 -2.06169e-19)
(0.00201939 -1.54712e-05 -8.53061e-26)
(0.00202046 1.56864e-05 1.788e-19)
(0.00200278 -1.72281e-05 -1.5461e-19)
(0.0020039 1.74821e-05 -1.54877e-19)
(0.00197609 -1.77306e-05 1.33548e-19)
(0.00197725 1.8025e-05 -6.67385e-20)
(0.00198453 -2.61621e-05 1.12802e-19)
(0.00198574 2.65109e-05 0)
(0.00203375 -3.25664e-05 -1.12677e-19)
(0.00203507 3.298e-05 1.07363e-25)
(0.00206846 -3.52724e-05 1.1276e-19)
(0.00206985 3.57473e-05 -1.07249e-25)
(0.0020996 -3.7442e-05 -1.12439e-19)
(0.00210108 3.79809e-05 4.38876e-22)
(0.00212642 -3.89761e-05 1.12068e-19)
(0.00212798 3.95797e-05 1.0701e-25)
(0.00214987 -4.00791e-05 -1.11747e-19)
(0.0021515 4.07476e-05 0)
(0.00217053 -4.08543e-05 0)
(0.00217223 4.15878e-05 1.06759e-25)
(0.00218884 -4.13669e-05 1.06614e-25)
(0.0021906 4.21651e-05 4.36818e-22)
(0.00220516 -4.16657e-05 -5.57636e-20)
(0.00220696 4.25278e-05 0)
(0.00221977 -4.17875e-05 5.53865e-20)
(0.00222161 4.27125e-05 0)
(0.00223291 -4.17615e-05 -5.5622e-20)
(0.00223479 4.27479e-05 0)
(0.00224478 -4.16108e-05 5.65073e-22)
(0.00224669 4.26569e-05 4.34614e-22)
(0.00225554 -4.13543e-05 5.56086e-20)
(0.00225748 4.24581e-05 5.54847e-20)
(0.00226535 -4.10074e-05 -1.058e-25)
(0.0022673 4.21667e-05 -1.10954e-19)
(0.00227432 -4.05827e-05 0)
(0.00227628 4.17951e-05 5.50364e-20)
(0.00228254 -4.00909e-05 5.52548e-20)
(0.00228451 4.13536e-05 0)
(0.00229012 -3.95408e-05 -1.10924e-19)
(0.00229208 4.0851e-05 -2.63468e-26)
(0.00229713 -3.89399e-05 1.10341e-19)
(0.00229908 4.02946e-05 -5.51102e-20)
(0.00230363 -3.82945e-05 -1.34558e-22)
(0.00230557 3.96904e-05 5.55988e-20)
(0.00230969 -3.76099e-05 -5.50851e-20)
(0.00231161 3.90437e-05 5.49565e-20)
(0.00231536 -3.68907e-05 -5.53021e-20)
(0.00231726 3.8359e-05 -1.35499e-22)
(0.00232069 -3.61407e-05 1.09726e-19)
(0.00232255 3.764e-05 -5.49368e-20)
(0.00232571 -3.53633e-05 -5.48527e-20)
(0.00232754 3.68901e-05 0)
(0.00233046 -3.45613e-05 0)
(0.00233226 3.61118e-05 0)
(0.00233498 -3.37371e-05 -5.49855e-20)
(0.00233674 3.53078e-05 -5.45643e-20)
(0.0023393 -3.28927e-05 5.50425e-20)
(0.00234102 3.448e-05 1.09106e-19)
(0.00234344 -3.20299e-05 0)
(0.00234513 3.36301e-05 -1.08947e-19)
(0.00234744 -3.11501e-05 5.38939e-20)
(0.00234909 3.27597e-05 5.4887e-20)
(0.00235132 -3.02545e-05 -1.38104e-22)
(0.00235292 3.18699e-05 2.58982e-26)
(0.00235509 -2.9344e-05 -5.42954e-20)
(0.00235666 3.09618e-05 2.58596e-26)
(0.0023588 -2.84193e-05 8.06822e-28)
(0.00236032 3.00362e-05 0)
(0.00236244 -2.74811e-05 -5.39937e-20)
(0.00236393 2.90937e-05 0)
(0.00236606 -2.65295e-05 5.40508e-20)
(0.00236751 2.81346e-05 -5.14851e-26)
(0.00236967 -2.55647e-05 -1.28505e-26)
(0.00237108 2.71592e-05 0)
(0.00237329 -2.45864e-05 0)
(0.00237467 2.61675e-05 2.68752e-20)
(0.00237695 -2.35944e-05 -2.68314e-20)
(0.0023783 2.51591e-05 3.49709e-22)
(0.00238068 -2.25879e-05 7.02317e-23)
(0.002382 2.41337e-05 -7.02944e-23)
(0.00238449 -2.15659e-05 2.68179e-20)
(0.0023858 2.30902e-05 -2.682e-20)
(0.00238843 -2.05271e-05 2.55018e-26)
(0.00238972 2.20276e-05 -2.67074e-20)
(0.00239252 -1.94697e-05 0)
(0.0023938 2.0944e-05 4.87931e-22)
(0.0023968 -1.83912e-05 2.62037e-20)
(0.00239809 1.98372e-05 7.09311e-23)
(0.00240133 -1.72885e-05 -7.10622e-23)
(0.00240262 1.87043e-05 2.66504e-20)
(0.00240614 -1.61574e-05 -5.31399e-20)
(0.00240744 1.75411e-05 0)
(0.00241131 -1.49924e-05 5.30535e-20)
(0.00241263 1.63423e-05 2.64929e-20)
(0.00241691 -1.37864e-05 -2.65191e-20)
(0.00241826 1.51008e-05 -5.33841e-20)
(0.00242304 -1.25297e-05 -2.64036e-20)
(0.00242443 1.3807e-05 7.18659e-23)
(0.00242981 -1.12089e-05 2.64317e-20)
(0.00243125 1.24477e-05 3.96142e-20)
(0.00243738 -9.80567e-06 0)
(0.00243888 1.10045e-05 -1.27829e-20)
(0.00244594 -8.29373e-06 -1.27241e-20)
(0.00244751 9.45094e-06 -1.3136e-20)
(0.00245575 -6.6346e-06 1.31492e-20)
(0.00245742 7.74854e-06 1.315e-20)
(0.00246719 -4.77001e-06 4.09647e-22)
(0.00246897 5.83878e-06 1.30906e-20)
(0.00248076 -2.60782e-06 2.49584e-26)
(0.00248266 3.62902e-06 -3.69523e-23)
(0.00249721 4.62612e-09 -4.08207e-22)
(0.00249927 9.65858e-07 -1.30816e-20)
(0.00251768 3.33544e-06 -6.10249e-21)
(0.00251994 -2.42025e-06 -6.51031e-21)
(0.00254401 7.88728e-06 6.51688e-21)
(0.0025465 -7.03444e-06 6.51724e-21)
(0.00257928 1.46665e-05 2.47775e-26)
(0.00258206 -1.38879e-05 0)
(0.00262955 2.58087e-05 -3.23642e-21)
(0.00263272 -2.51262e-05 3.23657e-21)
(0.00270594 4.65387e-05 6.4696e-21)
(0.00270966 -4.59965e-05 -6.46989e-21)
(0.00281298 9.16501e-05 -3.23317e-21)
(0.00281741 -9.13559e-05 3.23331e-21)
(0.00316303 0.000237773 5.02179e-23)
(0.000618822 0.00138378 -1.43068e-21)
(0.000410549 0.000324832 -6.97574e-25)
(0.000410754 -0.000331496 7.41172e-25)
(0.00061969 -0.00139151 -1.74378e-25)
(0.00316933 -0.00023816 4.02675e-22)
)
;
        pressure        nonuniform List<scalar> 
168
(
5.53419
5.53509
5.53425
5.53514
5.53406
5.53496
5.53361
5.53451
5.5329
5.5338
5.53192
5.53282
5.53066
5.53156
5.5291
5.53
5.52722
5.52812
5.525
5.5259
5.52241
5.52331
5.51943
5.52032
5.51601
5.5169
5.51214
5.51303
5.50777
5.50866
5.50286
5.50375
5.49739
5.49828
5.4913
5.49218
5.48455
5.48544
5.4771
5.47798
5.4689
5.46978
5.4599
5.46077
5.44979
5.45066
5.43852
5.43938
5.42708
5.42793
5.41544
5.41629
5.40365
5.40449
5.39173
5.39255
5.37969
5.3805
5.36754
5.36835
5.3553
5.3561
5.34299
5.34377
5.3306
5.33137
5.31815
5.3189
5.30564
5.30638
5.29308
5.29381
5.28047
5.28119
5.26782
5.26853
5.25513
5.25582
5.24241
5.24309
5.22966
5.23032
5.21688
5.21753
5.20407
5.2047
5.19124
5.19186
5.17838
5.17899
5.1655
5.1661
5.15261
5.15319
5.13969
5.14026
5.12676
5.12731
5.11381
5.11435
5.10085
5.10138
5.08787
5.08838
5.07488
5.07538
5.06187
5.06236
5.04885
5.04933
5.03581
5.03628
5.02276
5.02322
5.0097
5.01015
4.99662
4.99706
4.98353
4.98396
4.97042
4.97085
4.9573
4.95771
4.94416
4.94457
4.931
4.9314
4.91783
4.91822
4.90463
4.90501
4.89141
4.89178
4.87816
4.87853
4.86489
4.86524
4.85158
4.85193
4.83823
4.83857
4.82485
4.82518
4.81141
4.81173
4.7979
4.79822
4.78433
4.78463
4.77066
4.77095
4.75687
4.75715
4.74292
4.74319
4.72876
4.72901
4.71428
4.71451
4.69923
4.69944
4.68388
4.65026
4.64722
4.64725
4.65033
4.68407
)
;
        value           nonuniform List<vector> 
168
(
(1.73547e-09 1.09799e-09 1.0107e-27)
(1.80252e-09 -1.14052e-09 -1.18745e-27)
(1.09018e-09 1.76501e-09 -4.24488e-27)
(1.16796e-09 -1.83049e-09 -1.44457e-27)
(5.39713e-10 2.27535e-09 8.15809e-28)
(6.35737e-10 -2.36315e-09 6.77481e-28)
(1.00838e-10 2.62464e-09 -1.12944e-27)
(2.20832e-10 -2.73506e-09 -1.46059e-27)
(-2.39203e-10 2.86382e-09 2.29711e-27)
(-9.05759e-11 -2.9998e-09 2.18801e-28)
(-5.12741e-10 3.01638e-09 -1.81997e-27)
(-3.32126e-10 -3.1825e-09 2.43923e-27)
(-7.39272e-10 3.10693e-09 2.47917e-27)
(-5.2407e-10 -3.30946e-09 3.13577e-28)
(-9.35218e-10 3.15114e-09 -1.95066e-27)
(-6.83409e-10 -3.39783e-09 -1.38413e-27)
(-1.11137e-09 3.16155e-09 2.00617e-28)
(-8.21299e-10 -3.46165e-09 8.727e-28)
(-1.27601e-09 3.14682e-09 1.56404e-27)
(-9.46295e-10 -3.51106e-09 -4.11153e-28)
(-1.43517e-09 3.11321e-09 -7.07056e-28)
(-1.06464e-09 -3.55392e-09 5.54662e-28)
(-1.59359e-09 3.06487e-09 -3.35418e-28)
(-1.18128e-09 -3.59605e-09 4.47685e-28)
(-1.755e-09 3.00433e-09 1.47515e-28)
(-1.30018e-09 -3.64183e-09 -6.56611e-28)
(-1.92246e-09 2.93284e-09 -1.20328e-28)
(-1.42462e-09 -3.69446e-09 -2.23168e-28)
(-2.09842e-09 2.85065e-09 7.81748e-28)
(-1.55737e-09 -3.75627e-09 -1.35617e-28)
(-2.28495e-09 2.75725e-09 2.10683e-28)
(-1.70084e-09 -3.82899e-09 3.17917e-28)
(-2.48381e-09 2.65167e-09 -7.68225e-28)
(-1.85718e-09 -3.91397e-09 -4.35296e-28)
(-2.69654e-09 2.53259e-09 2.09557e-28)
(-2.02843e-09 -4.0123e-09 1.14914e-27)
(-2.92464e-09 2.3986e-09 -4.13865e-29)
(-2.21661e-09 -4.12497e-09 -7.85659e-28)
(-3.16957e-09 2.24825e-09 -2.13127e-28)
(-2.4238e-09 -4.25293e-09 -1.54465e-29)
(-3.43287e-09 2.08016e-09 -4.63422e-28)
(-2.65224e-09 -4.39707e-09 6.42614e-28)
(-3.71627e-09 1.89312e-09 1.68229e-28)
(-2.90441e-09 -4.55823e-09 -6.10546e-28)
(-4.03318e-09 1.67825e-09 2.8123e-28)
(-3.19363e-09 -4.74393e-09 -1.02391e-28)
(-4.37468e-09 1.44174e-09 -3.43809e-28)
(-3.51341e-09 -4.94818e-09 -2.18433e-28)
(-4.71896e-09 1.20082e-09 2.39274e-28)
(-3.84355e-09 -5.15611e-09 2.86895e-28)
(-5.0664e-09 9.57345e-10 7.29603e-28)
(-4.18395e-09 -5.36589e-09 3.66928e-28)
(-5.41742e-09 7.13052e-10 -4.67543e-28)
(-4.53458e-09 -5.57582e-09 -7.79605e-28)
(-5.77243e-09 4.69572e-10 2.06066e-28)
(-4.89534e-09 -5.78435e-09 5.72572e-28)
(-6.1318e-09 2.28405e-10 2.03645e-29)
(-5.26616e-09 -5.99001e-09 2.93753e-28)
(-6.49592e-09 -9.06898e-12 -3.42559e-28)
(-5.64695e-09 -6.19145e-09 -4.18583e-28)
(-6.86514e-09 -2.41589e-10 1.71879e-28)
(-6.03763e-09 -6.38746e-09 2.68836e-28)
(-7.23983e-09 -4.6801e-10 -2.95156e-28)
(-6.4381e-09 -6.57691e-09 -3.24363e-28)
(-7.62033e-09 -6.87302e-10 6.12931e-30)
(-6.84828e-09 -6.7588e-09 4.8671e-29)
(-8.00698e-09 -8.98543e-10 4.30353e-28)
(-7.26807e-09 -6.93221e-09 1.0955e-28)
(-8.40012e-09 -1.10092e-09 -5.18538e-28)
(-7.69739e-09 -7.09636e-09 -2.14392e-29)
(-8.80005e-09 -1.29372e-09 3.12959e-28)
(-8.13616e-09 -7.25055e-09 -1.08133e-28)
(-9.2071e-09 -1.47635e-09 2.01047e-28)
(-8.5843e-09 -7.39418e-09 3.13202e-30)
(-9.62157e-09 -1.64829e-09 -8.59095e-29)
(-9.04174e-09 -7.52676e-09 -3.15635e-29)
(-1.00438e-08 -1.80912e-09 -4.01844e-28)
(-9.50842e-09 -7.64787e-09 -2.31683e-28)
(-1.04739e-08 -1.95852e-09 3.05126e-28)
(-9.98427e-09 -7.7572e-09 3.41883e-28)
(-1.09124e-08 -2.09625e-09 -1.96081e-29)
(-1.04692e-08 -7.85451e-09 -2.50829e-30)
(-1.13594e-08 -2.22215e-09 -2.58894e-28)
(-1.09633e-08 -7.93966e-09 -1.69555e-28)
(-1.18152e-08 -2.33614e-09 1.92002e-28)
(-1.14664e-08 -8.01255e-09 -5.02675e-30)
(-1.22801e-08 -2.43821e-09 1.26193e-28)
(-1.19785e-08 -8.0732e-09 3.60118e-28)
(-1.27543e-08 -2.52841e-09 -7.19322e-29)
(-1.24996e-08 -8.12165e-09 -2.22458e-28)
(-1.3238e-08 -2.60688e-09 -1.10723e-28)
(-1.30297e-08 -8.15803e-09 -7.15153e-29)
(-1.37314e-08 -2.67378e-09 -1.11049e-29)
(-1.35688e-08 -8.18253e-09 8.27795e-29)
(-1.42348e-08 -2.72935e-09 1.93005e-28)
(-1.41169e-08 -8.19538e-09 3.03097e-28)
(-1.47484e-08 -2.77387e-09 -2.82959e-28)
(-1.46741e-08 -8.19685e-09 -2.6023e-28)
(-1.52723e-08 -2.80766e-09 2.53663e-28)
(-1.52402e-08 -8.18728e-09 -2.04247e-28)
(-1.58068e-08 -2.83107e-09 -2.29796e-28)
(-1.58155e-08 -8.16702e-09 1.89581e-28)
(-1.63519e-08 -2.84451e-09 1.01889e-28)
(-1.63999e-08 -8.13646e-09 1.8132e-28)
(-1.69079e-08 -2.84838e-09 -1.00822e-29)
(-1.69935e-08 -8.09603e-09 -3.30804e-28)
(-1.74749e-08 -2.84312e-09 2.68344e-28)
(-1.75964e-08 -8.04616e-09 2.0578e-29)
(-1.8053e-08 -2.82921e-09 -1.5945e-28)
(-1.82086e-08 -7.98733e-09 1.84557e-28)
(-1.86424e-08 -2.80709e-09 -1.68529e-28)
(-1.88303e-08 -7.91999e-09 -5.55868e-29)
(-1.92432e-08 -2.77727e-09 6.96892e-29)
(-1.94614e-08 -7.84464e-09 2.35366e-29)
(-1.98555e-08 -2.74023e-09 6.39777e-29)
(-2.01022e-08 -7.76177e-09 -8.74255e-29)
(-2.04794e-08 -2.69645e-09 -1.19064e-28)
(-2.07526e-08 -7.67187e-09 1.17693e-28)
(-2.11151e-08 -2.64642e-09 -2.2417e-29)
(-2.14129e-08 -7.57543e-09 -1.08385e-28)
(-2.17625e-08 -2.59063e-09 1.01751e-29)
(-2.20831e-08 -7.47293e-09 4.93712e-29)
(-2.24218e-08 -2.52954e-09 5.7015e-29)
(-2.27633e-08 -7.36485e-09 -9.33e-29)
(-2.30931e-08 -2.46364e-09 2.41702e-29)
(-2.34537e-08 -7.25167e-09 -2.54243e-29)
(-2.37764e-08 -2.39335e-09 -8.85363e-29)
(-2.41543e-08 -7.13383e-09 1.61314e-28)
(-2.44718e-08 -2.31913e-09 1.27224e-28)
(-2.48654e-08 -7.01178e-09 -1.10454e-28)
(-2.51794e-08 -2.24139e-09 -7.39245e-29)
(-2.5587e-08 -6.88595e-09 4.82891e-29)
(-2.58992e-08 -2.16054e-09 4.56906e-29)
(-2.63192e-08 -6.75674e-09 -1.5291e-28)
(-2.66312e-08 -2.07696e-09 -6.48596e-29)
(-2.70621e-08 -6.62454e-09 1.18581e-28)
(-2.73755e-08 -1.99101e-09 5.80031e-29)
(-2.7816e-08 -6.48971e-09 -2.32145e-29)
(-2.81321e-08 -1.90304e-09 -2.21151e-29)
(-2.85808e-08 -6.35261e-09 1.85738e-29)
(-2.8901e-08 -1.81337e-09 -4.47598e-29)
(-2.93568e-08 -6.21355e-09 1.46949e-29)
(-2.96823e-08 -1.72229e-09 3.54726e-29)
(-3.0144e-08 -6.07283e-09 1.93779e-29)
(-3.04761e-08 -1.63009e-09 -1.09512e-29)
(-3.09426e-08 -5.93073e-09 9.75352e-30)
(-3.12822e-08 -1.53703e-09 -2.94758e-29)
(-3.17526e-08 -5.78748e-09 -3.51202e-29)
(-3.21008e-08 -1.44333e-09 -1.13135e-29)
(-3.25743e-08 -5.6433e-09 -1.36143e-29)
(-3.29318e-08 -1.34924e-09 4.80094e-29)
(-3.34076e-08 -5.49837e-09 1.49351e-29)
(-3.37753e-08 -1.25496e-09 -3.0101e-29)
(-3.42527e-08 -5.35282e-09 -3.42764e-31)
(-3.46313e-08 -1.16072e-09 3.75489e-29)
(-3.51098e-08 -5.20673e-09 4.61373e-30)
(-3.54997e-08 -1.06678e-09 -9.98624e-32)
(-3.59789e-08 -5.0601e-09 9.21375e-30)
(-3.63802e-08 -9.73089e-10 2.46038e-30)
(-3.68597e-08 -4.91317e-09 5.09728e-30)
(-3.72709e-08 -8.78826e-10 -5.92601e-30)
(-3.77504e-08 -4.76692e-09 -2.11811e-29)
(-3.81689e-08 -7.76256e-10 4.19053e-30)
(-3.86893e-08 -1.19283e-09 -3.16233e-30)
(-3.88053e-08 -2.16118e-09 -1.32833e-30)
(-3.89252e-08 -3.12423e-09 9.44864e-31)
(-3.90488e-08 -4.0925e-09 6.6472e-30)
(-3.86483e-08 -4.62917e-09 2.66508e-30)
)
;
    }
    frontAndBackPlanes
    {
        type            empty;
    }
}


// ************************************************************************* //
