/*--------------------------------*- C++ -*----------------------------------*\
| =========                 |                                                 |
| \\      /  F ield         | foam-extend: Open Source CFD                    |
|  \\    /   O peration     | Version:     3.1                                |
|   \\  /    A nd           | Web:         http://www.extend-project.de       |
|    \\/     M anipulation  |                                                 |
\*---------------------------------------------------------------------------*/
FoamFile
{
    version     2.0;
    format      ascii;
    class       volVectorField;
    location    "0.005";
    object      DV;
}
// * * * * * * * * * * * * * * * * * * * * * * * * * * * * * * * * * * * * * //

dimensions      [0 1 -1 0 0 0 0];

internalField   nonuniform List<vector> 
328
(
(4.00034e-08 1.35821e-07 0)
(1.73229e-08 2.88505e-08 0)
(1.77849e-08 -2.82948e-08 0)
(4.21572e-08 -1.38372e-07 0)
(1.21071e-07 3.48589e-07 0)
(6.40548e-08 8.37893e-08 0)
(6.56598e-08 -8.33951e-08 0)
(1.27734e-07 -3.55448e-07 0)
(2.20261e-07 5.06725e-07 0)
(1.42683e-07 1.35174e-07 0)
(1.45917e-07 -1.36323e-07 0)
(2.32165e-07 -5.17723e-07 0)
(3.2962e-07 6.1866e-07 0)
(2.41308e-07 1.78784e-07 0)
(2.46408e-07 -1.82927e-07 0)
(3.47242e-07 -6.34137e-07 0)
(4.51178e-07 6.95433e-07 0)
(3.61973e-07 2.13028e-07 0)
(3.69188e-07 -2.21705e-07 0)
(4.7503e-07 -7.16228e-07 0)
(5.83768e-07 7.45509e-07 0)
(5.00576e-07 2.37332e-07 0)
(5.10079e-07 -2.5227e-07 0)
(6.14307e-07 -7.72903e-07 0)
(7.28214e-07 7.75828e-07 0)
(6.56295e-07 2.5234e-07 0)
(6.6825e-07 -2.75497e-07 0)
(7.65895e-07 -8.1152e-07 0)
(8.84973e-07 7.91533e-07 0)
(8.27344e-07 2.5915e-07 0)
(8.41895e-07 -2.92789e-07 0)
(9.30244e-07 -8.37633e-07 0)
(1.05493e-06 7.96574e-07 0)
(1.01298e-06 2.59156e-07 0)
(1.03027e-06 -3.05891e-07 0)
(1.10823e-06 -8.55611e-07 0)
(1.23891e-06 7.93834e-07 0)
(1.21262e-06 2.53686e-07 0)
(1.23278e-06 -3.16553e-07 0)
(1.30071e-06 -8.68791e-07 0)
(1.43785e-06 7.8539e-07 0)
(1.42623e-06 2.43887e-07 0)
(1.44941e-06 -3.26398e-07 0)
(1.50857e-06 -8.79742e-07 0)
(1.65262e-06 7.72636e-07 0)
(1.65413e-06 2.30598e-07 0)
(1.68045e-06 -3.36806e-07 0)
(1.73273e-06 -8.90406e-07 0)
(1.88415e-06 7.56408e-07 0)
(1.897e-06 2.14329e-07 0)
(1.92661e-06 -3.48896e-07 0)
(1.97407e-06 -9.02227e-07 0)
(2.13336e-06 7.37085e-07 0)
(2.1558e-06 1.95272e-07 0)
(2.18883e-06 -3.63542e-07 0)
(2.23352e-06 -9.16267e-07 0)
(2.40124e-06 7.14687e-07 0)
(2.43172e-06 1.73343e-07 0)
(2.4683e-06 -3.81417e-07 0)
(2.51202e-06 -9.33298e-07 0)
(2.68881e-06 6.88957e-07 0)
(2.72609e-06 1.48241e-07 0)
(2.76633e-06 -4.03055e-07 0)
(2.81057e-06 -9.539e-07 0)
(2.99719e-06 6.59444e-07 0)
(3.04032e-06 1.19505e-07 0)
(3.08433e-06 -4.28914e-07 0)
(3.13024e-06 -9.78537e-07 0)
(3.32754e-06 6.25567e-07 0)
(3.37588e-06 8.65676e-08 0)
(3.42374e-06 -4.59426e-07 0)
(3.47214e-06 -1.00762e-06 0)
(3.68112e-06 5.86659e-07 0)
(3.73425e-06 4.87946e-08 0)
(3.786e-06 -4.95036e-07 0)
(3.83743e-06 -1.04157e-06 0)
(4.05923e-06 5.42011e-07 0)
(4.11687e-06 5.51493e-09 0)
(4.17256e-06 -5.36222e-07 0)
(4.22734e-06 -1.08082e-06 0)
(4.46322e-06 4.90884e-07 0)
(4.5252e-06 -4.39625e-08 0)
(4.58481e-06 -5.83507e-07 0)
(4.64307e-06 -1.12584e-06 0)
(4.89442e-06 4.32526e-07 0)
(4.96061e-06 -1.00336e-07 0)
(5.02408e-06 -6.37449e-07 0)
(5.08585e-06 -1.17714e-06 0)
(5.37171e-06 3.63653e-07 0)
(5.44212e-06 -1.6674e-07 0)
(5.50949e-06 -7.00958e-07 0)
(5.57482e-06 -1.23746e-06 0)
(5.8787e-06 2.85582e-07 0)
(5.9531e-06 -2.4185e-07 0)
(6.02413e-06 -7.7269e-07 0)
(6.09281e-06 -1.30545e-06 0)
(6.38127e-06 2.03658e-07 0)
(6.45914e-06 -3.20494e-07 0)
(6.53336e-06 -8.47658e-07 0)
(6.60491e-06 -1.37637e-06 0)
(6.87897e-06 1.18378e-07 0)
(6.95983e-06 -4.02178e-07 0)
(7.03673e-06 -9.25359e-07 0)
(7.11067e-06 -1.44972e-06 0)
(7.37134e-06 3.02461e-08 0)
(7.45469e-06 -4.86405e-07 0)
(7.53381e-06 -1.0053e-06 0)
(7.60966e-06 -1.52501e-06 0)
(7.85794e-06 -6.02452e-08 0)
(7.94331e-06 -5.72689e-07 0)
(8.02416e-06 -1.087e-06 0)
(8.10146e-06 -1.60178e-06 0)
(8.33833e-06 -1.52614e-07 0)
(8.42524e-06 -6.60554e-07 0)
(8.50736e-06 -1.17e-06 0)
(8.58564e-06 -1.67954e-06 0)
(8.81208e-06 -2.46387e-07 0)
(8.90007e-06 -7.4953e-07 0)
(8.983e-06 -1.25382e-06 0)
(9.06182e-06 -1.75786e-06 0)
(9.27876e-06 -3.41099e-07 0)
(9.36738e-06 -8.39162e-07 0)
(9.45069e-06 -1.33802e-06 0)
(9.52959e-06 -1.83629e-06 0)
(9.73797e-06 -4.36298e-07 0)
(9.82677e-06 -9.29e-07 0)
(9.91002e-06 -1.42215e-06 0)
(9.98858e-06 -1.91439e-06 0)
(1.01893e-05 -5.31538e-07 0)
(1.02779e-05 -1.01861e-06 0)
(1.03606e-05 -1.50579e-06 0)
(1.04384e-05 -1.99174e-06 0)
(1.06324e-05 -6.26386e-07 0)
(1.07203e-05 -1.10756e-06 0)
(1.08021e-05 -1.58851e-06 0)
(1.08787e-05 -2.06793e-06 0)
(1.10668e-05 -7.20418e-07 0)
(1.11536e-05 -1.19543e-06 0)
(1.12341e-05 -1.66991e-06 0)
(1.13092e-05 -2.14255e-06 0)
(1.14922e-05 -8.13224e-07 0)
(1.15775e-05 -1.28182e-06 0)
(1.16563e-05 -1.74959e-06 0)
(1.17295e-05 -2.21522e-06 0)
(1.19081e-05 -9.04402e-07 0)
(1.19916e-05 -1.36634e-06 0)
(1.20684e-05 -1.82716e-06 0)
(1.21392e-05 -2.28556e-06 0)
(1.23144e-05 -9.93567e-07 0)
(1.23956e-05 -1.44861e-06 0)
(1.247e-05 -1.90224e-06 0)
(1.25382e-05 -2.3532e-06 0)
(1.27105e-05 -1.08035e-06 0)
(1.27892e-05 -1.52826e-06 0)
(1.28608e-05 -1.97449e-06 0)
(1.2926e-05 -2.4178e-06 0)
(1.30962e-05 -1.16438e-06 0)
(1.3172e-05 -1.60494e-06 0)
(1.32405e-05 -2.04357e-06 0)
(1.33024e-05 -2.47903e-06 0)
(1.34712e-05 -1.24534e-06 0)
(1.35437e-05 -1.67833e-06 0)
(1.36089e-05 -2.10914e-06 0)
(1.36671e-05 -2.53657e-06 0)
(1.38351e-05 -1.3229e-06 0)
(1.39041e-05 -1.7481e-06 0)
(1.39655e-05 -2.17091e-06 0)
(1.40199e-05 -2.59013e-06 0)
(1.41876e-05 -1.39675e-06 0)
(1.42528e-05 -1.81398e-06 0)
(1.43103e-05 -2.22859e-06 0)
(1.43605e-05 -2.63943e-06 0)
(1.45284e-05 -1.46664e-06 0)
(1.45896e-05 -1.87568e-06 0)
(1.46429e-05 -2.28193e-06 0)
(1.46888e-05 -2.68424e-06 0)
(1.48573e-05 -1.5323e-06 0)
(1.49143e-05 -1.93298e-06 0)
(1.49632e-05 -2.33069e-06 0)
(1.50044e-05 -2.72433e-06 0)
(1.5174e-05 -1.59351e-06 0)
(1.52265e-05 -1.98565e-06 0)
(1.52708e-05 -2.37468e-06 0)
(1.53073e-05 -2.7595e-06 0)
(1.54783e-05 -1.65007e-06 0)
(1.55261e-05 -2.0335e-06 0)
(1.55657e-05 -2.4137e-06 0)
(1.55973e-05 -2.78959e-06 0)
(1.57698e-05 -1.70182e-06 0)
(1.58128e-05 -2.07639e-06 0)
(1.58475e-05 -2.44762e-06 0)
(1.58741e-05 -2.81447e-06 0)
(1.60484e-05 -1.74861e-06 0)
(1.60866e-05 -2.11417e-06 0)
(1.61163e-05 -2.47632e-06 0)
(1.61377e-05 -2.83402e-06 0)
(1.63138e-05 -1.79034e-06 0)
(1.6347e-05 -2.14676e-06 0)
(1.63717e-05 -2.49971e-06 0)
(1.6388e-05 -2.84819e-06 0)
(1.6566e-05 -1.82693e-06 0)
(1.65942e-05 -2.17409e-06 0)
(1.66137e-05 -2.51774e-06 0)
(1.66248e-05 -2.85692e-06 0)
(1.68046e-05 -1.85834e-06 0)
(1.68278e-05 -2.19613e-06 0)
(1.68422e-05 -2.5304e-06 0)
(1.68481e-05 -2.86021e-06 0)
(1.70297e-05 -1.88456e-06 0)
(1.70477e-05 -2.21288e-06 0)
(1.70571e-05 -2.5377e-06 0)
(1.70578e-05 -2.85809e-06 0)
(1.72409e-05 -1.90559e-06 0)
(1.7254e-05 -2.22437e-06 0)
(1.72583e-05 -2.53967e-06 0)
(1.72539e-05 -2.85062e-06 0)
(1.74383e-05 -1.92149e-06 0)
(1.74464e-05 -2.23066e-06 0)
(1.74458e-05 -2.53641e-06 0)
(1.74363e-05 -2.83789e-06 0)
(1.76217e-05 -1.93234e-06 0)
(1.76249e-05 -2.23184e-06 0)
(1.76195e-05 -2.52801e-06 0)
(1.76051e-05 -2.82001e-06 0)
(1.77911e-05 -1.93823e-06 0)
(1.77896e-05 -2.22805e-06 0)
(1.77794e-05 -2.51462e-06 0)
(1.77603e-05 -2.79715e-06 0)
(1.79465e-05 -1.9393e-06 0)
(1.79404e-05 -2.21941e-06 0)
(1.79256e-05 -2.49639e-06 0)
(1.79019e-05 -2.76948e-06 0)
(1.80878e-05 -1.9357e-06 0)
(1.80772e-05 -2.20612e-06 0)
(1.80581e-05 -2.47352e-06 0)
(1.80301e-05 -2.73721e-06 0)
(1.82151e-05 -1.92761e-06 0)
(1.82003e-05 -2.18835e-06 0)
(1.8177e-05 -2.44623e-06 0)
(1.81448e-05 -2.70057e-06 0)
(1.83284e-05 -1.91523e-06 0)
(1.83096e-05 -2.16634e-06 0)
(1.82823e-05 -2.41474e-06 0)
(1.82462e-05 -2.65981e-06 0)
(1.84279e-05 -1.89876e-06 0)
(1.84052e-05 -2.14031e-06 0)
(1.83742e-05 -2.37932e-06 0)
(1.83344e-05 -2.61519e-06 0)
(1.85137e-05 -1.87843e-06 0)
(1.84874e-05 -2.11051e-06 0)
(1.84529e-05 -2.34022e-06 0)
(1.84097e-05 -2.56702e-06 0)
(1.85859e-05 -1.85448e-06 0)
(1.85562e-05 -2.07721e-06 0)
(1.85185e-05 -2.29774e-06 0)
(1.84722e-05 -2.51558e-06 0)
(1.86448e-05 -1.82716e-06 0)
(1.86119e-05 -2.04067e-06 0)
(1.85712e-05 -2.25216e-06 0)
(1.85221e-05 -2.4612e-06 0)
(1.86905e-05 -1.79671e-06 0)
(1.86547e-05 -2.00116e-06 0)
(1.86113e-05 -2.20379e-06 0)
(1.85597e-05 -2.40419e-06 0)
(1.87233e-05 -1.76338e-06 0)
(1.8685e-05 -1.95898e-06 0)
(1.86391e-05 -2.15292e-06 0)
(1.85852e-05 -2.34487e-06 0)
(1.87437e-05 -1.72743e-06 0)
(1.87029e-05 -1.91438e-06 0)
(1.86549e-05 -2.09985e-06 0)
(1.8599e-05 -2.28357e-06 0)
(1.87518e-05 -1.6891e-06 0)
(1.87089e-05 -1.86764e-06 0)
(1.86589e-05 -2.04489e-06 0)
(1.86014e-05 -2.2206e-06 0)
(1.87483e-05 -1.64861e-06 0)
(1.87034e-05 -1.81904e-06 0)
(1.86518e-05 -1.98832e-06 0)
(1.85929e-05 -2.15629e-06 0)
(1.87334e-05 -1.6062e-06 0)
(1.86868e-05 -1.76881e-06 0)
(1.86337e-05 -1.93043e-06 0)
(1.85738e-05 -2.09094e-06 0)
(1.87077e-05 -1.56207e-06 0)
(1.86596e-05 -1.71719e-06 0)
(1.86054e-05 -1.87147e-06 0)
(1.85445e-05 -2.02485e-06 0)
(1.86718e-05 -1.5164e-06 0)
(1.86224e-05 -1.66442e-06 0)
(1.85671e-05 -1.81171e-06 0)
(1.85057e-05 -1.9583e-06 0)
(1.86263e-05 -1.46938e-06 0)
(1.85757e-05 -1.61068e-06 0)
(1.85196e-05 -1.75138e-06 0)
(1.84578e-05 -1.89154e-06 0)
(1.85718e-05 -1.42113e-06 0)
(1.85201e-05 -1.55617e-06 0)
(1.84635e-05 -1.69068e-06 0)
(1.84015e-05 -1.82483e-06 0)
(1.8509e-05 -1.37179e-06 0)
(1.84564e-05 -1.50103e-06 0)
(1.83993e-05 -1.62982e-06 0)
(1.83374e-05 -1.75838e-06 0)
(1.84387e-05 -1.32146e-06 0)
(1.83853e-05 -1.44539e-06 0)
(1.83278e-05 -1.56895e-06 0)
(1.82661e-05 -1.6924e-06 0)
(1.83618e-05 -1.27019e-06 0)
(1.83076e-05 -1.38937e-06 0)
(1.82499e-05 -1.50822e-06 0)
(1.81885e-05 -1.62708e-06 0)
(1.8279e-05 -1.21803e-06 0)
(1.82241e-05 -1.33302e-06 0)
(1.81663e-05 -1.44776e-06 0)
(1.81053e-05 -1.56256e-06 0)
(1.81912e-05 -1.16495e-06 0)
(1.81358e-05 -1.27639e-06 0)
(1.80779e-05 -1.3877e-06 0)
(1.80174e-05 -1.49902e-06 0)
(1.80996e-05 -1.11093e-06 0)
(1.80437e-05 -1.21946e-06 0)
(1.79858e-05 -1.32811e-06 0)
(1.79257e-05 -1.43657e-06 0)
(1.80049e-05 -1.05511e-06 0)
(1.79489e-05 -1.16208e-06 0)
(1.78909e-05 -1.2692e-06 0)
(1.78309e-05 -1.37614e-06 0)
)
;

boundaryField
{
    plateFix
    {
        type            calculated;
        value           uniform (0 0 0);
    }
    plate
    {
        type            calculated;
        value           nonuniform List<vector> 
168
(
(6.36713e-07 3.61634e-07 8.17988e-26)
(6.4966e-07 -3.71261e-07 -2.86847e-24)
(5.56085e-07 5.82113e-07 -7.453e-24)
(5.71783e-07 -5.964e-07 -4.60457e-24)
(5.16023e-07 7.51525e-07 2.73107e-25)
(5.36453e-07 -7.70334e-07 6.66069e-25)
(5.22623e-07 8.68341e-07 1.93493e-24)
(5.49317e-07 -8.91769e-07 -2.30066e-24)
(5.72485e-07 9.49261e-07 1.47899e-24)
(6.0674e-07 -9.78081e-07 6.88554e-25)
(6.55818e-07 1.00197e-06 -1.61681e-24)
(6.98628e-07 -1.03738e-06 5.93906e-24)
(7.67093e-07 1.03455e-06 4.26671e-24)
(8.19295e-07 -1.07821e-06 8.35466e-25)
(9.01838e-07 1.05214e-06 -3.24207e-24)
(9.64155e-07 -1.10612e-06 -4.66259e-24)
(1.05749e-06 1.05888e-06 -2.11292e-24)
(1.13058e-06 -1.12569e-06 -3.37802e-25)
(1.23235e-06 1.05762e-06 6.72933e-24)
(1.31685e-06 -1.14023e-06 1.71029e-24)
(1.42556e-06 1.05044e-06 -3.69762e-24)
(1.52206e-06 -1.1523e-06 2.04245e-24)
(1.63673e-06 1.0387e-06 -1.07713e-25)
(1.74582e-06 -1.1638e-06 1.36557e-25)
(1.86586e-06 1.02323e-06 1.21994e-25)
(1.98812e-06 -1.1762e-06 -8.99113e-25)
(2.11329e-06 1.00442e-06 8.23021e-25)
(2.24927e-06 -1.19053e-06 -1.41332e-25)
(2.37961e-06 9.82303e-07 1.29752e-24)
(2.52981e-06 -1.20761e-06 7.76995e-25)
(2.66562e-06 9.56644e-07 -2.67898e-25)
(2.83052e-06 -1.22802e-06 -2.35816e-25)
(2.97233e-06 9.27017e-07 -1.75881e-24)
(3.15233e-06 -1.25226e-06 -1.8101e-24)
(3.30088e-06 8.92858e-07 8.77311e-25)
(3.4963e-06 -1.28075e-06 2.19239e-24)
(3.65253e-06 8.53514e-07 3.17809e-26)
(3.8636e-06 -1.31393e-06 -1.19116e-24)
(4.02861e-06 8.08275e-07 -1.81597e-24)
(4.25542e-06 -1.35222e-06 5.91685e-26)
(4.43051e-06 7.56394e-07 1.69126e-25)
(4.673e-06 -1.3961e-06 1.00331e-24)
(4.85962e-06 6.97109e-07 1.73377e-25)
(5.11754e-06 -1.44605e-06 -9.01006e-25)
(5.33479e-06 6.27063e-07 6.09952e-25)
(5.60823e-06 -1.50473e-06 -1.4227e-25)
(5.83974e-06 5.47571e-07 -1.35525e-24)
(6.12784e-06 -1.57081e-06 -9.4841e-26)
(6.34051e-06 4.64067e-07 8.88426e-25)
(6.64129e-06 -1.63967e-06 -8.5726e-26)
(6.83667e-06 3.77046e-07 2.02744e-24)
(7.14817e-06 -1.71079e-06 6.49182e-25)
(7.32774e-06 2.8702e-07 -1.62931e-24)
(7.64803e-06 -1.78371e-06 -1.07762e-24)
(7.81329e-06 1.94482e-07 1.16486e-24)
(8.14045e-06 -1.85796e-06 7.56039e-26)
(8.29286e-06 9.9916e-08 -8.68273e-25)
(8.62504e-06 -1.93308e-06 1.47725e-24)
(8.76602e-06 3.8001e-09 1.86286e-25)
(9.10139e-06 -2.0086e-06 -8.15826e-25)
(9.23235e-06 -9.33994e-08 5.87956e-25)
(9.56912e-06 -2.0841e-06 3.97562e-25)
(9.69143e-06 -1.91225e-07 -1.04953e-24)
(1.00278e-05 -2.15915e-06 -7.03699e-25)
(1.01429e-05 -2.8923e-07 2.44433e-25)
(1.04772e-05 -2.23332e-06 4.48881e-25)
(1.05862e-05 -3.86977e-07 8.03665e-25)
(1.09169e-05 -2.3062e-06 8.10588e-26)
(1.10211e-05 -4.8404e-07 -1.07826e-24)
(1.13465e-05 -2.3774e-06 -1.07488e-25)
(1.14472e-05 -5.80003e-07 3.68805e-25)
(1.17657e-05 -2.44653e-06 -7.01705e-25)
(1.18641e-05 -6.74464e-07 7.34539e-25)
(1.21742e-05 -2.51322e-06 6.82558e-25)
(1.22715e-05 -7.67032e-07 -2.96923e-25)
(1.25717e-05 -2.57711e-06 -6.8667e-26)
(1.26689e-05 -8.57332e-07 -4.71876e-25)
(1.29579e-05 -2.63786e-06 -5.20709e-25)
(1.3056e-05 -9.45004e-07 1.31618e-25)
(1.33325e-05 -2.69514e-06 6.42019e-25)
(1.34326e-05 -1.02971e-06 -4.30346e-25)
(1.36954e-05 -2.74864e-06 6.21997e-26)
(1.37983e-05 -1.11112e-06 2.03855e-25)
(1.40461e-05 -2.79807e-06 -1.32602e-25)
(1.41527e-05 -1.18893e-06 3.21853e-25)
(1.43846e-05 -2.84317e-06 -2.5264e-25)
(1.44956e-05 -1.26287e-06 -5.57078e-26)
(1.47105e-05 -2.8837e-06 9.62109e-25)
(1.48266e-05 -1.33268e-06 -2.50714e-26)
(1.50238e-05 -2.91943e-06 -5.65995e-25)
(1.51456e-05 -1.39813e-06 -2.85991e-25)
(1.53242e-05 -2.95019e-06 -8.41298e-26)
(1.54522e-05 -1.45902e-06 -1.12218e-25)
(1.56116e-05 -2.97581e-06 -1.27647e-25)
(1.57462e-05 -1.51518e-06 7.778e-25)
(1.58858e-05 -2.99616e-06 7.71042e-25)
(1.60272e-05 -1.56646e-06 -1.13946e-24)
(1.61467e-05 -3.01114e-06 -3.36689e-25)
(1.62953e-05 -1.61274e-06 6.32935e-25)
(1.63943e-05 -3.0207e-06 -8.04523e-25)
(1.655e-05 -1.65395e-06 -5.67309e-25)
(1.66284e-05 -3.02478e-06 2.16999e-25)
(1.67912e-05 -1.69004e-06 4.66703e-25)
(1.6849e-05 -3.02341e-06 4.93692e-25)
(1.70188e-05 -1.72098e-06 1.36604e-25)
(1.7056e-05 -3.0166e-06 -7.5234e-25)
(1.72326e-05 -1.74678e-06 4.537e-25)
(1.72495e-05 -3.00442e-06 4.30317e-25)
(1.74325e-05 -1.76748e-06 -2.5582e-25)
(1.74293e-05 -2.98697e-06 2.98073e-25)
(1.76184e-05 -1.78316e-06 -6.60598e-26)
(1.75956e-05 -2.96439e-06 -3.39065e-25)
(1.77903e-05 -1.7939e-06 -1.97423e-25)
(1.77484e-05 -2.93682e-06 3.01096e-25)
(1.7948e-05 -1.79983e-06 1.98628e-25)
(1.78877e-05 -2.90447e-06 -1.37697e-25)
(1.80916e-05 -1.80109e-06 -3.81597e-25)
(1.80136e-05 -2.86753e-06 -1.41406e-25)
(1.82211e-05 -1.79784e-06 4.56277e-26)
(1.81262e-05 -2.82625e-06 5.90547e-26)
(1.83365e-05 -1.79028e-06 -9.21252e-26)
(1.82256e-05 -2.78088e-06 4.51618e-26)
(1.8438e-05 -1.7786e-06 2.17222e-25)
(1.8312e-05 -2.73172e-06 -2.90242e-25)
(1.85256e-05 -1.76302e-06 1.31234e-25)
(1.83856e-05 -2.67905e-06 1.53592e-25)
(1.85996e-05 -1.74377e-06 -4.4421e-25)
(1.84465e-05 -2.62318e-06 1.5379e-25)
(1.866e-05 -1.72107e-06 3.69337e-25)
(1.8495e-05 -2.56444e-06 -2.07781e-25)
(1.87072e-05 -1.69516e-06 -2.08446e-25)
(1.85314e-05 -2.50315e-06 2.25658e-25)
(1.87415e-05 -1.66627e-06 2.88775e-25)
(1.85559e-05 -2.43966e-06 -3.49974e-25)
(1.8763e-05 -1.63466e-06 -1.21756e-25)
(1.85688e-05 -2.37428e-06 -6.85515e-27)
(1.87724e-05 -1.60053e-06 8.24998e-26)
(1.85705e-05 -2.30737e-06 2.80496e-26)
(1.87698e-05 -1.56412e-06 -1.39132e-25)
(1.85613e-05 -2.23923e-06 1.68741e-25)
(1.87558e-05 -1.52562e-06 1.20702e-26)
(1.85418e-05 -2.17021e-06 -1.06603e-26)
(1.8731e-05 -1.48523e-06 1.40731e-26)
(1.85123e-05 -2.10059e-06 1.17125e-25)
(1.86958e-05 -1.44312e-06 -3.30506e-26)
(1.84733e-05 -2.03068e-06 -4.39405e-26)
(1.86509e-05 -1.39944e-06 -3.37368e-26)
(1.84254e-05 -1.96076e-06 3.22081e-26)
(1.8597e-05 -1.35433e-06 1.57752e-26)
(1.83691e-05 -1.89108e-06 -1.40346e-25)
(1.85348e-05 -1.30788e-06 5.2476e-26)
(1.83052e-05 -1.82188e-06 5.94083e-26)
(1.8465e-05 -1.26018e-06 -7.35096e-26)
(1.82342e-05 -1.75339e-06 7.17477e-27)
(1.83885e-05 -1.21128e-06 1.15207e-25)
(1.8157e-05 -1.68579e-06 -5.28596e-27)
(1.83061e-05 -1.16119e-06 -6.90816e-27)
(1.80742e-05 -1.61928e-06 2.53057e-26)
(1.82189e-05 -1.10987e-06 -2.84428e-28)
(1.79869e-05 -1.55404e-06 4.17881e-26)
(1.8128e-05 -1.05736e-06 -1.42563e-26)
(1.7896e-05 -1.49012e-06 -7.54124e-26)
(1.80346e-05 -1.00259e-06 1.11505e-26)
(1.7957e-05 -1.02571e-06 -1.08837e-26)
(1.79014e-05 -1.13348e-06 -5.69845e-27)
(1.78434e-05 -1.23978e-06 3.4583e-27)
(1.7783e-05 -1.34749e-06 1.71591e-26)
(1.78027e-05 -1.42864e-06 5.19638e-27)
)
;
    }
    frontAndBackPlanes
    {
        type            empty;
    }
}


// ************************************************************************* //
