/*--------------------------------*- C++ -*----------------------------------*\
| =========                 |                                                 |
| \\      /  F ield         | foam-extend: Open Source CFD                    |
|  \\    /   O peration     | Version:     3.1                                |
|   \\  /    A nd           | Web:         http://www.extend-project.de       |
|    \\/     M anipulation  |                                                 |
\*---------------------------------------------------------------------------*/
FoamFile
{
    version     2.0;
    format      ascii;
    class       surfaceScalarField;
    location    "0.005";
    object      meshPhi;
}
// * * * * * * * * * * * * * * * * * * * * * * * * * * * * * * * * * * * * * //

dimensions      [0 3 -1 0 0 0 0];

internalField   nonuniform List<scalar> 
570
(
1.12633e-11
1.54067e-10
-3.36343e-14
-5.835e-11
-1.15918e-11
-5.69721e-11
1.64583e-10
3.39677e-11
5.5453e-11
-1.83013e-13
-1.08729e-10
-3.50777e-11
-1.05761e-10
6.93843e-11
5.49457e-11
-2.60562e-11
-5.19572e-13
-1.4872e-10
-5.70946e-11
-1.43938e-10
-7.64376e-12
7.37003e-11
-9.21076e-11
-1.09068e-12
-1.82511e-10
-7.72585e-11
-1.75757e-10
-6.83969e-11
9.0225e-11
-1.45908e-10
-1.9527e-12
-2.1115e-10
-9.57016e-11
-2.02282e-10
-1.16249e-10
1.04666e-10
-1.916e-10
-3.1797e-12
-2.36782e-10
-1.12741e-10
-2.25686e-10
-1.555e-10
1.17203e-10
-2.3192e-10
-4.8677e-12
-2.6071e-10
-1.28764e-10
-2.47283e-10
-1.88982e-10
1.28032e-10
-2.69077e-10
-7.1385e-12
-2.84277e-10
-1.44222e-10
-2.68426e-10
-2.18978e-10
1.37339e-10
-3.04629e-10
-1.01447e-11
-3.08475e-10
-1.59613e-10
-2.90119e-10
-2.47093e-10
1.45281e-10
-3.39789e-10
-1.40754e-11
-3.34146e-10
-1.75479e-10
-3.13212e-10
-2.74581e-10
1.51965e-10
-3.75478e-10
-1.91631e-11
-3.61918e-10
-1.9239e-10
-3.38342e-10
-3.02399e-10
1.57421e-10
-4.12435e-10
-2.56916e-11
-3.92274e-10
-2.10945e-10
-3.66002e-10
-3.31323e-10
1.61582e-10
-4.51252e-10
-3.40053e-11
-4.25565e-10
-2.31764e-10
-3.96559e-10
-3.6199e-10
1.64262e-10
-4.92423e-10
-4.45196e-11
-4.62061e-10
-2.55492e-10
-4.30298e-10
-3.94942e-10
1.65145e-10
-5.36363e-10
-5.77332e-11
-5.01981e-10
-2.82805e-10
-4.67457e-10
-4.30658e-10
1.63772e-10
-5.83443e-10
-7.42408e-11
-5.4553e-10
-3.14433e-10
-5.08266e-10
-4.69576e-10
1.59536e-10
-6.34005e-10
-9.47471e-11
-5.92928e-10
-3.51174e-10
-5.52971e-10
-5.12124e-10
1.51676e-10
-6.88391e-10
-1.20082e-10
-6.44431e-10
-3.93923e-10
-6.01861e-10
-5.58737e-10
1.39275e-10
-7.46951e-10
-1.51215e-10
-7.00349e-10
-4.437e-10
-6.55282e-10
-6.09877e-10
1.21254e-10
-8.10066e-10
-1.89269e-10
-7.6105e-10
-5.01667e-10
-7.13642e-10
-6.66048e-10
9.63669e-11
-8.7816e-10
-2.35534e-10
-8.2697e-10
-5.69153e-10
-7.77423e-10
-7.27811e-10
6.31964e-11
-9.51704e-10
-2.91473e-10
-8.98614e-10
-6.47665e-10
-8.47181e-10
-7.95785e-10
1.9633e-11
-1.03711e-09
-3.87092e-10
-9.82357e-10
-7.95183e-10
-9.29247e-10
-8.76276e-10
-3.86562e-11
-1.12341e-09
-4.43527e-10
-1.06749e-09
-8.49372e-10
-1.0132e-09
-9.59126e-10
-9.7996e-11
-1.2107e-09
-5.00954e-10
-1.15408e-09
-9.04521e-10
-1.09907e-09
-1.04436e-09
-1.57918e-10
-1.29906e-09
-5.58909e-10
-1.24218e-09
-9.60166e-10
-1.1869e-09
-1.13197e-09
-2.17986e-10
-1.38858e-09
-6.16957e-10
-1.33185e-09
-1.01588e-09
-1.27669e-09
-1.22196e-09
-2.77791e-10
-1.47935e-09
-6.74692e-10
-1.42315e-09
-1.07125e-09
-1.36848e-09
-1.31432e-09
-3.36955e-10
-1.57145e-09
-7.3174e-10
-1.51611e-09
-1.1259e-09
-1.4623e-09
-1.40904e-09
-3.9513e-10
-1.66495e-09
-7.87756e-10
-1.6108e-09
-1.17951e-09
-1.55815e-09
-1.50612e-09
-4.52e-10
-1.75994e-09
-8.42423e-10
-1.70727e-09
-1.23175e-09
-1.65607e-09
-1.60556e-09
-5.07276e-10
-1.85649e-09
-8.95457e-10
-1.80555e-09
-1.28233e-09
-1.75607e-09
-1.70733e-09
-5.60697e-10
-1.95466e-09
-9.46598e-10
-1.9057e-09
-1.33101e-09
-1.85816e-09
-1.81143e-09
-6.12032e-10
-2.05454e-09
-9.95615e-10
-2.00776e-09
-1.37755e-09
-1.96238e-09
-1.91786e-09
-6.61076e-10
-2.1562e-09
-1.04231e-09
-2.11177e-09
-1.42174e-09
-2.06873e-09
-2.0266e-09
-7.07651e-10
-2.25969e-09
-1.08649e-09
-2.21777e-09
-1.46342e-09
-2.17723e-09
-2.13765e-09
-7.51603e-10
-2.36509e-09
-1.12803e-09
-2.32582e-09
-1.50242e-09
-2.2879e-09
-2.251e-09
-7.92805e-10
-2.47245e-09
-1.16677e-09
-2.43594e-09
-1.53863e-09
-2.40076e-09
-2.36664e-09
-8.31153e-10
-2.58186e-09
-1.20264e-09
-2.54818e-09
-1.57194e-09
-2.51582e-09
-2.48458e-09
-8.66564e-10
-2.69335e-09
-1.23553e-09
-2.66258e-09
-1.60227e-09
-2.6331e-09
-2.6048e-09
-8.98979e-10
-2.807e-09
-1.2654e-09
-2.77917e-09
-1.62955e-09
-2.75263e-09
-2.7273e-09
-9.28359e-10
-2.92286e-09
-1.29221e-09
-2.898e-09
-1.65376e-09
-2.87442e-09
-2.8521e-09
-9.54683e-10
-3.04098e-09
-1.31593e-09
-3.0191e-09
-1.67487e-09
-2.99849e-09
-2.97917e-09
-9.77951e-10
-3.16142e-09
-1.33657e-09
-3.1425e-09
-1.69289e-09
-3.12485e-09
-3.10854e-09
-9.98178e-10
-3.28423e-09
-1.35414e-09
-3.26826e-09
-1.70782e-09
-3.25354e-09
-3.24019e-09
-1.0154e-09
-3.40946e-09
-1.36867e-09
-3.39639e-09
-1.7197e-09
-3.38456e-09
-3.37415e-09
-1.02965e-09
-3.53716e-09
-1.38022e-09
-3.52693e-09
-1.72857e-09
-3.51795e-09
-3.51042e-09
-1.041e-09
-3.66738e-09
-1.38883e-09
-3.65992e-09
-1.7345e-09
-3.65372e-09
-3.649e-09
-1.04952e-09
-3.80015e-09
-1.39459e-09
-3.7954e-09
-1.73756e-09
-3.7919e-09
-3.78991e-09
-1.05529e-09
-3.93552e-09
-1.39758e-09
-3.93338e-09
-1.73783e-09
-3.9325e-09
-3.93316e-09
-1.05841e-09
-4.07353e-09
-1.39789e-09
-4.07391e-09
-1.7354e-09
-4.07556e-09
-4.07877e-09
-1.05897e-09
-4.21422e-09
-1.39562e-09
-4.21702e-09
-1.73038e-09
-4.2211e-09
-4.22676e-09
-1.05707e-09
-4.35762e-09
-1.39087e-09
-4.36274e-09
-1.72287e-09
-4.36913e-09
-4.37714e-09
-1.05284e-09
-4.50377e-09
-1.38377e-09
-4.51109e-09
-1.71297e-09
-4.5197e-09
-4.52993e-09
-1.04639e-09
-4.6527e-09
-1.37442e-09
-4.66211e-09
-1.70082e-09
-4.67281e-09
-4.68516e-09
-1.03784e-09
-4.80445e-09
-1.36296e-09
-4.81582e-09
-1.68653e-09
-4.8285e-09
-4.84285e-09
-1.02731e-09
-4.95903e-09
-1.34949e-09
-4.97225e-09
-1.67023e-09
-4.98679e-09
-5.00302e-09
-1.01493e-09
-5.11649e-09
-1.33416e-09
-5.13143e-09
-1.65203e-09
-5.14771e-09
-5.16569e-09
-1.00082e-09
-5.27683e-09
-1.31708e-09
-5.29338e-09
-1.63207e-09
-5.31128e-09
-5.3309e-09
-9.85105e-10
-5.4401e-09
-1.29837e-09
-5.45813e-09
-1.61047e-09
-5.47754e-09
-5.49867e-09
-9.67912e-10
-5.60631e-09
-1.27817e-09
-5.62571e-09
-1.58735e-09
-5.6465e-09
-5.66903e-09
-9.4936e-10
-5.77548e-09
-1.25659e-09
-5.79613e-09
-1.56284e-09
-5.81819e-09
-5.842e-09
-9.29567e-10
-5.94763e-09
-1.23376e-09
-5.96942e-09
-1.53705e-09
-5.99264e-09
-6.01762e-09
-9.08649e-10
-6.12278e-09
-1.20978e-09
-6.14561e-09
-1.5101e-09
-6.16988e-09
-6.19591e-09
-8.86716e-10
-6.30095e-09
-1.18477e-09
-6.3247e-09
-1.4821e-09
-6.34992e-09
-6.37691e-09
-8.63877e-10
-6.48216e-09
-1.15884e-09
-6.50673e-09
-1.45315e-09
-6.53279e-09
-6.56063e-09
-8.40234e-10
-6.66641e-09
-1.1321e-09
-6.69171e-09
-1.42337e-09
-6.71852e-09
-6.74712e-09
-8.15885e-10
-6.85372e-09
-1.10463e-09
-6.87967e-09
-1.39286e-09
-6.90713e-09
-6.93639e-09
-7.90922e-10
-7.04411e-09
-1.07653e-09
-7.07061e-09
-1.36169e-09
-7.09865e-09
-7.12848e-09
-7.65434e-10
-7.23758e-09
-1.04789e-09
-7.26455e-09
-1.32997e-09
-7.29308e-09
-7.32341e-09
-7.39501e-10
-7.43415e-09
-1.0188e-09
-7.46151e-09
-1.29777e-09
-7.49046e-09
-7.52121e-09
-7.132e-10
-7.63382e-09
-9.8932e-10
-7.66151e-09
-1.26517e-09
-7.69081e-09
-7.72191e-09
-6.86601e-10
-7.8366e-09
-9.5953e-10
-7.86456e-09
-1.23224e-09
-7.89415e-09
-7.92553e-09
-6.59769e-10
-8.0425e-09
-9.29491e-10
-8.07067e-09
-1.19903e-09
-8.10049e-09
-8.1321e-09
-6.32763e-10
-8.25153e-09
-8.99261e-10
-8.27986e-09
-1.16562e-09
-8.30985e-09
-8.34164e-09
-6.05641e-10
-8.46369e-09
-8.6889e-10
-8.49214e-09
-1.13204e-09
-8.52227e-09
-8.55419e-09
-5.78455e-10
-8.679e-09
-8.38425e-10
-8.70754e-09
-1.09832e-09
-8.73776e-09
-8.76977e-09
-5.51258e-10
-8.89746e-09
-8.07903e-10
-8.92608e-09
-1.0645e-09
-8.95637e-09
-8.9884e-09
-5.2409e-10
-9.11906e-09
-7.77355e-10
-9.14782e-09
-1.03059e-09
-9.17815e-09
-9.21011e-09
-4.9692e-10
-9.34367e-09
-7.46809e-10
-9.37277e-09
-9.96682e-10
-9.40312e-09
-9.43475e-09
-4.69385e-10
-9.57096e-09
-7.16284e-10
-9.6009e-09
-9.63175e-10
-9.63126e-09
-9.66205e-09
-4.40484e-10
-6.85792e-10
-9.31093e-10
)
;

boundaryField
{
    plateFix
    {
        type            calculated;
        value           nonuniform List<scalar> 4(-2.28757e-10 -3.98457e-17 -4.45334e-17 -2.3612e-10);
    }
    plate
    {
        type            calculated;
        value           nonuniform List<scalar> 
168
(
-5.33608e-11
-5.54756e-11
-9.32428e-11
-9.67718e-11
-1.29842e-10
-1.34941e-10
-1.62026e-10
-1.68947e-10
-1.90314e-10
-1.99474e-10
-2.15615e-10
-2.27629e-10
-2.38605e-10
-2.54317e-10
-2.59878e-10
-2.804e-10
-2.79881e-10
-3.06645e-10
-2.98957e-10
-3.33782e-10
-3.17338e-10
-3.6251e-10
-3.35151e-10
-3.9352e-10
-3.52405e-10
-4.27506e-10
-3.68989e-10
-4.65181e-10
-3.84654e-10
-5.07286e-10
-3.99014e-10
-5.54614e-10
-4.11533e-10
-6.08028e-10
-4.21521e-10
-6.68489e-10
-4.28134e-10
-7.37078e-10
-4.30364e-10
-8.15021e-10
-4.27036e-10
-9.03711e-10
-4.168e-10
-1.00471e-09
-4.25416e-10
-1.20405e-09
-3.65545e-10
-1.25578e-09
-3.04532e-10
-1.30842e-09
-2.42863e-10
-1.36154e-09
-1.8098e-10
-1.41471e-09
-1.19295e-10
-1.46753e-09
-5.81892e-11
-1.51963e-09
1.98705e-12
-1.57066e-09
6.09137e-11
-1.62033e-09
1.183e-10
-1.66834e-09
1.73884e-10
-1.71443e-09
2.27433e-10
-1.75838e-09
2.78739e-10
-1.79999e-09
3.27622e-10
-1.83907e-09
3.73929e-10
-1.87549e-09
4.17529e-10
-1.9091e-09
4.58318e-10
-1.93981e-09
4.96211e-10
-1.96754e-09
5.31149e-10
-1.99222e-09
5.63089e-10
-2.01382e-09
5.92012e-10
-2.03232e-09
6.17914e-10
-2.04771e-09
6.40811e-10
-2.06001e-09
6.60732e-10
-2.06925e-09
6.77722e-10
-2.07548e-09
6.9184e-10
-2.07876e-09
7.03157e-10
-2.07916e-09
7.11753e-10
-2.07675e-09
7.17719e-10
-2.07163e-09
7.21154e-10
-2.06391e-09
7.22164e-10
-2.05367e-09
7.2086e-10
-2.04105e-09
7.17358e-10
-2.02615e-09
7.11778e-10
-2.0091e-09
7.04242e-10
-1.99001e-09
6.94874e-10
-1.96901e-09
6.83796e-10
-1.94623e-09
6.71133e-10
-1.92179e-09
6.57006e-10
-1.89581e-09
6.41536e-10
-1.86842e-09
6.24841e-10
-1.83973e-09
6.07035e-10
-1.80986e-09
5.88229e-10
-1.77892e-09
5.68529e-10
-1.74702e-09
5.48038e-10
-1.71425e-09
5.26854e-10
-1.68073e-09
5.05067e-10
-1.64654e-09
4.82766e-10
-1.61178e-09
4.60032e-10
-1.57651e-09
4.36941e-10
-1.54082e-09
4.13562e-10
-1.50478e-09
3.89963e-10
-1.46845e-09
3.66203e-10
-1.43187e-09
3.42341e-10
-1.39511e-09
3.18434e-10
-1.35818e-09
2.94538e-10
-1.32111e-09
2.70698e-10
-1.28392e-09
2.46873e-10
-1.2467e-09
2.22465e-10
-1.21009e-09
1.95373e-10
-9.80073e-09
-9.83117e-09
-9.86152e-09
-9.89182e-09
-1.1762e-09
)
;
    }
    frontAndBackPlanes
    {
        type            empty;
    }
}


// ************************************************************************* //
