/*--------------------------------*- C++ -*----------------------------------*\
| =========                 |                                                 |
| \\      /  F ield         | foam-extend: Open Source CFD                    |
|  \\    /   O peration     | Version:     3.1                                |
|   \\  /    A nd           | Web:         http://www.extend-project.de       |
|    \\/     M anipulation  |                                                 |
\*---------------------------------------------------------------------------*/
FoamFile
{
    version     2.0;
    format      ascii;
    class       volVectorField;
    location    "0.005";
    object      Usolid;
}
// * * * * * * * * * * * * * * * * * * * * * * * * * * * * * * * * * * * * * //

dimensions      [0 1 0 0 0 0 0];

internalField   nonuniform List<vector> 
328
(
(-4.59204e-10 1.83174e-09 0)
(-7.65031e-10 3.85261e-10 0)
(-7.60397e-10 -3.87403e-10 0)
(-4.35666e-10 -1.86693e-09 0)
(-1.43539e-09 4.69575e-09 0)
(-2.20425e-09 1.118e-09 0)
(-2.18805e-09 -1.13829e-09 0)
(-1.3633e-09 -4.79258e-09 0)
(-2.31658e-09 6.81846e-09 0)
(-3.36351e-09 1.80244e-09 0)
(-3.33076e-09 -1.85628e-09 0)
(-2.18923e-09 -6.97516e-09 0)
(-3.22141e-09 8.31592e-09 0)
(-4.41509e-09 2.38237e-09 0)
(-4.36351e-09 -2.48557e-09 0)
(-3.03492e-09 -8.53596e-09 0)
(-4.13423e-09 9.33915e-09 0)
(-5.34357e-09 2.83719e-09 0)
(-5.2709e-09 -3.00614e-09 0)
(-3.88463e-09 -9.63104e-09 0)
(-5.0834e-09 1.00041e-08 0)
(-6.21725e-09 3.16017e-09 0)
(-6.12209e-09 -3.41274e-09 0)
(-4.76756e-09 -1.03807e-08 0)
(-6.07133e-09 1.04058e-08 0)
(-7.06086e-09 3.36103e-09 0)
(-6.94204e-09 -3.71698e-09 0)
(-5.68642e-09 -1.08838e-08 0)
(-7.10627e-09 1.06149e-08 0)
(-7.913e-09 3.45572e-09 0)
(-7.76969e-09 -3.93724e-09 0)
(-6.64984e-09 -1.12148e-08 0)
(-8.19184e-09 1.06858e-08 0)
(-8.79914e-09 3.46415e-09 0)
(-8.63064e-09 -4.09627e-09 0)
(-7.66172e-09 -1.14317e-08 0)
(-9.33324e-09 1.06586e-08 0)
(-9.74367e-09 3.40553e-09 0)
(-9.54944e-09 -4.21651e-09 0)
(-8.72762e-09 -1.15781e-08 0)
(-1.05359e-08 1.05628e-08 0)
(-1.07646e-08 3.29669e-09 0)
(-1.05442e-08 -4.31842e-09 0)
(-9.8533e-09 -1.16873e-08 0)
(-1.18066e-08 1.04185e-08 0)
(-1.18764e-08 3.15056e-09 0)
(-1.16296e-08 -4.41884e-09 0)
(-1.1046e-08 -1.17837e-08 0)
(-1.31531e-08 1.02392e-08 0)
(-1.30901e-08 2.97593e-09 0)
(-1.28168e-08 -4.53081e-09 0)
(-1.2314e-08 -1.18847e-08 0)
(-1.45844e-08 1.0032e-08 0)
(-1.44141e-08 2.77766e-09 0)
(-1.41142e-08 -4.66369e-09 0)
(-1.36667e-08 -1.20022e-08 0)
(-1.61102e-08 9.80022e-09 0)
(-1.58553e-08 2.55731e-09 0)
(-1.55292e-08 -4.82379e-09 0)
(-1.51146e-08 -1.21442e-08 0)
(-1.77406e-08 9.54359e-09 0)
(-1.74202e-08 2.31402e-09 0)
(-1.70683e-08 -5.01516e-09 0)
(-1.66686e-08 -1.23153e-08 0)
(-1.94864e-08 9.26e-09 0)
(-1.91152e-08 2.04534e-09 0)
(-1.87385e-08 -5.24034e-09 0)
(-1.83403e-08 -1.25184e-08 0)
(-2.13588e-08 8.94622e-09 0)
(-2.0948e-08 1.74802e-09 0)
(-2.05474e-08 -5.50099e-09 0)
(-2.01421e-08 -1.27553e-08 0)
(-2.33695e-08 8.59862e-09 0)
(-2.29271e-08 1.41853e-09 0)
(-2.25043e-08 -5.79839e-09 0)
(-2.20866e-08 -1.30271e-08 0)
(-2.55308e-08 8.2137e-09 0)
(-2.50629e-08 1.0536e-09 0)
(-2.46196e-08 -6.13362e-09 0)
(-2.41876e-08 -1.33347e-08 0)
(-2.78559e-08 7.78845e-09 0)
(-2.73672e-08 6.50429e-10 0)
(-2.69059e-08 -6.50767e-09 0)
(-2.64593e-08 -1.36789e-08 0)
(-3.03589e-08 7.32052e-09 0)
(-2.98535e-08 2.06891e-10 0)
(-2.9377e-08 -6.92129e-09 0)
(-2.89176e-08 -1.40604e-08 0)
(-3.31576e-08 6.78893e-09 0)
(-3.26393e-08 -2.96774e-10 0)
(-3.21505e-08 -7.39215e-09 0)
(-3.16804e-08 -1.44953e-08 0)
(-3.61697e-08 6.21107e-09 0)
(-3.56433e-08 -8.43505e-10 0)
(-3.51466e-08 -7.9034e-09 0)
(-3.46698e-08 -1.49675e-08 0)
(-3.91994e-08 5.62954e-09 0)
(-3.86698e-08 -1.39295e-09 0)
(-3.817e-08 -8.41696e-09 0)
(-3.76911e-08 -1.54417e-08 0)
(-4.22476e-08 5.04895e-09 0)
(-4.17193e-08 -1.94061e-09 0)
(-4.12208e-08 -8.9283e-09 0)
(-4.0744e-08 -1.59136e-08 0)
(-4.53153e-08 4.4735e-09 0)
(-4.47923e-08 -2.48236e-09 0)
(-4.42991e-08 -9.43333e-09 0)
(-4.38282e-08 -1.6379e-08 0)
(-4.84032e-08 3.90699e-09 0)
(-4.78892e-08 -3.0145e-09 0)
(-4.74049e-08 -9.92839e-09 0)
(-4.69435e-08 -1.68343e-08 0)
(-5.15123e-08 3.35283e-09 0)
(-5.10105e-08 -3.53369e-09 0)
(-5.05382e-08 -1.04102e-08 0)
(-5.00895e-08 -1.72763e-08 0)
(-5.46431e-08 2.814e-09 0)
(-5.41564e-08 -4.03698e-09 0)
(-5.36991e-08 -1.08758e-08 0)
(-5.32658e-08 -1.77022e-08 0)
(-5.77964e-08 2.29315e-09 0)
(-5.73273e-08 -4.52178e-09 0)
(-5.68874e-08 -1.13227e-08 0)
(-5.6472e-08 -1.81094e-08 0)
(-6.09728e-08 1.79256e-09 0)
(-6.05235e-08 -4.98587e-09 0)
(-6.01031e-08 -1.17487e-08 0)
(-5.97077e-08 -1.84957e-08 0)
(-6.41728e-08 1.31417e-09 0)
(-6.37451e-08 -5.42733e-09 0)
(-6.33461e-08 -1.21519e-08 0)
(-6.29726e-08 -1.88593e-08 0)
(-6.7397e-08 8.59606e-10 0)
(-6.69925e-08 -5.84458e-09 0)
(-6.66165e-08 -1.25307e-08 0)
(-6.62663e-08 -1.91986e-08 0)
(-7.0646e-08 4.30201e-10 0)
(-7.02659e-08 -6.23632e-09 0)
(-6.99141e-08 -1.28839e-08 0)
(-6.95885e-08 -1.95123e-08 0)
(-7.392e-08 2.70008e-11 0)
(-7.35654e-08 -6.60154e-09 0)
(-7.32388e-08 -1.32104e-08 0)
(-7.29387e-08 -1.97995e-08 0)
(-7.72197e-08 -3.49212e-10 0)
(-7.68911e-08 -6.93947e-09 0)
(-7.65905e-08 -1.35096e-08 0)
(-7.63167e-08 -2.00594e-08 0)
(-8.05452e-08 -6.97897e-10 0)
(-8.02433e-08 -7.24962e-09 0)
(-7.99692e-08 -1.37808e-08 0)
(-7.97221e-08 -2.02914e-08 0)
(-8.38971e-08 -1.01874e-09 0)
(-8.36221e-08 -7.53168e-09 0)
(-8.33747e-08 -1.40239e-08 0)
(-8.31547e-08 -2.04954e-08 0)
(-8.72756e-08 -1.31163e-09 0)
(-8.70276e-08 -7.78557e-09 0)
(-8.68071e-08 -1.42388e-08 0)
(-8.66141e-08 -2.06713e-08 0)
(-9.06809e-08 -1.57666e-09 0)
(-9.04599e-08 -8.01141e-09 0)
(-9.02662e-08 -1.44256e-08 0)
(-9.01002e-08 -2.08191e-08 0)
(-9.41135e-08 -1.81409e-09 0)
(-9.39191e-08 -8.20946e-09 0)
(-9.37519e-08 -1.45845e-08 0)
(-9.36127e-08 -2.09391e-08 0)
(-9.75733e-08 -2.02431e-09 0)
(-9.74053e-08 -8.38015e-09 0)
(-9.72642e-08 -1.4716e-08 0)
(-9.71513e-08 -2.10318e-08 0)
(-1.01061e-07 -2.2079e-09 0)
(-1.00918e-07 -8.52407e-09 0)
(-1.00803e-07 -1.48207e-08 0)
(-1.00716e-07 -2.10977e-08 0)
(-1.04576e-07 -2.36551e-09 0)
(-1.04459e-07 -8.64188e-09 0)
(-1.04368e-07 -1.48992e-08 0)
(-1.04306e-07 -2.11375e-08 0)
(-1.08119e-07 -2.49792e-09 0)
(-1.08026e-07 -8.7344e-09 0)
(-1.0796e-07 -1.49524e-08 0)
(-1.07922e-07 -2.11521e-08 0)
(-1.1169e-07 -2.60602e-09 0)
(-1.11621e-07 -8.8025e-09 0)
(-1.11578e-07 -1.49812e-08 0)
(-1.11564e-07 -2.11422e-08 0)
(-1.1529e-07 -2.69074e-09 0)
(-1.15243e-07 -8.84714e-09 0)
(-1.15223e-07 -1.49865e-08 0)
(-1.15231e-07 -2.11088e-08 0)
(-1.18917e-07 -2.7531e-09 0)
(-1.18892e-07 -8.86935e-09 0)
(-1.18893e-07 -1.49693e-08 0)
(-1.18923e-07 -2.1053e-08 0)
(-1.22573e-07 -2.79416e-09 0)
(-1.22568e-07 -8.87021e-09 0)
(-1.2259e-07 -1.49308e-08 0)
(-1.22641e-07 -2.09759e-08 0)
(-1.26257e-07 -2.81502e-09 0)
(-1.26272e-07 -8.85081e-09 0)
(-1.26313e-07 -1.4872e-08 0)
(-1.26383e-07 -2.08784e-08 0)
(-1.2997e-07 -2.8168e-09 0)
(-1.30003e-07 -8.8123e-09 0)
(-1.30063e-07 -1.4794e-08 0)
(-1.30151e-07 -2.07619e-08 0)
(-1.33711e-07 -2.80065e-09 0)
(-1.33761e-07 -8.75582e-09 0)
(-1.33839e-07 -1.4698e-08 0)
(-1.33944e-07 -2.06273e-08 0)
(-1.3748e-07 -2.7677e-09 0)
(-1.37547e-07 -8.68252e-09 0)
(-1.3764e-07 -1.45852e-08 0)
(-1.37763e-07 -2.04758e-08 0)
(-1.41278e-07 -2.71911e-09 0)
(-1.4136e-07 -8.59355e-09 0)
(-1.41469e-07 -1.44567e-08 0)
(-1.41606e-07 -2.03086e-08 0)
(-1.45104e-07 -2.656e-09 0)
(-1.452e-07 -8.49006e-09 0)
(-1.45323e-07 -1.43137e-08 0)
(-1.45474e-07 -2.01268e-08 0)
(-1.48959e-07 -2.57948e-09 0)
(-1.49068e-07 -8.37314e-09 0)
(-1.49204e-07 -1.41572e-08 0)
(-1.49368e-07 -1.99316e-08 0)
(-1.52842e-07 -2.49064e-09 0)
(-1.52963e-07 -8.24389e-09 0)
(-1.5311e-07 -1.39883e-08 0)
(-1.53287e-07 -1.97239e-08 0)
(-1.56753e-07 -2.39053e-09 0)
(-1.56885e-07 -8.10337e-09 0)
(-1.57044e-07 -1.38081e-08 0)
(-1.57231e-07 -1.95048e-08 0)
(-1.60693e-07 -2.28017e-09 0)
(-1.60834e-07 -7.95259e-09 0)
(-1.61003e-07 -1.36177e-08 0)
(-1.612e-07 -1.92754e-08 0)
(-1.6466e-07 -2.16054e-09 0)
(-1.64811e-07 -7.79253e-09 0)
(-1.64989e-07 -1.34179e-08 0)
(-1.65195e-07 -1.90367e-08 0)
(-1.68656e-07 -2.03257e-09 0)
(-1.68815e-07 -7.62412e-09 0)
(-1.69001e-07 -1.32097e-08 0)
(-1.69216e-07 -1.87894e-08 0)
(-1.7268e-07 -1.89714e-09 0)
(-1.72847e-07 -7.44825e-09 0)
(-1.7304e-07 -1.29941e-08 0)
(-1.73262e-07 -1.85346e-08 0)
(-1.76733e-07 -1.7551e-09 0)
(-1.76905e-07 -7.26575e-09 0)
(-1.77105e-07 -1.27717e-08 0)
(-1.77334e-07 -1.8273e-08 0)
(-1.80813e-07 -1.60724e-09 0)
(-1.80991e-07 -7.07741e-09 0)
(-1.81197e-07 -1.25435e-08 0)
(-1.81431e-07 -1.80054e-08 0)
(-1.84921e-07 -1.4543e-09 0)
(-1.85105e-07 -6.88397e-09 0)
(-1.85316e-07 -1.23101e-08 0)
(-1.85555e-07 -1.77325e-08 0)
(-1.89057e-07 -1.29696e-09 0)
(-1.89245e-07 -6.6861e-09 0)
(-1.89461e-07 -1.20722e-08 0)
(-1.89705e-07 -1.74551e-08 0)
(-1.93222e-07 -1.13587e-09 0)
(-1.93413e-07 -6.48443e-09 0)
(-1.93633e-07 -1.18304e-08 0)
(-1.9388e-07 -1.71736e-08 0)
(-1.97414e-07 -9.71628e-10 0)
(-1.97609e-07 -6.27956e-09 0)
(-1.97831e-07 -1.15853e-08 0)
(-1.98082e-07 -1.68887e-08 0)
(-2.01634e-07 -8.04772e-10 0)
(-2.01832e-07 -6.07201e-09 0)
(-2.02057e-07 -1.13374e-08 0)
(-2.02311e-07 -1.66009e-08 0)
(-2.05882e-07 -6.35806e-10 0)
(-2.06082e-07 -5.86226e-09 0)
(-2.0631e-07 -1.10873e-08 0)
(-2.06566e-07 -1.63107e-08 0)
(-2.10159e-07 -4.65192e-10 0)
(-2.1036e-07 -5.65077e-09 0)
(-2.1059e-07 -1.08352e-08 0)
(-2.10848e-07 -1.60183e-08 0)
(-2.14463e-07 -2.93355e-10 0)
(-2.14666e-07 -5.43792e-09 0)
(-2.14897e-07 -1.05816e-08 0)
(-2.15157e-07 -1.57243e-08 0)
(-2.18795e-07 -1.20687e-10 0)
(-2.18999e-07 -5.22407e-09 0)
(-2.19231e-07 -1.03269e-08 0)
(-2.19493e-07 -1.54288e-08 0)
(-2.23156e-07 5.24363e-11 0)
(-2.2336e-07 -5.00956e-09 0)
(-2.23594e-07 -1.00712e-08 0)
(-2.23856e-07 -1.51321e-08 0)
(-2.27545e-07 2.25648e-10 0)
(-2.2775e-07 -4.79468e-09 0)
(-2.27984e-07 -9.81474e-09 0)
(-2.28247e-07 -1.48344e-08 0)
(-2.31962e-07 3.98533e-10 0)
(-2.32167e-07 -4.57976e-09 0)
(-2.32402e-07 -9.55773e-09 0)
(-2.32666e-07 -1.45356e-08 0)
(-2.36408e-07 5.70652e-10 0)
(-2.36614e-07 -4.36509e-09 0)
(-2.36849e-07 -9.30017e-09 0)
(-2.37112e-07 -1.42357e-08 0)
(-2.40883e-07 7.41379e-10 0)
(-2.4109e-07 -4.15102e-09 0)
(-2.41325e-07 -9.04204e-09 0)
(-2.41588e-07 -1.39344e-08 0)
(-2.45387e-07 9.10847e-10 0)
(-2.45596e-07 -3.93741e-09 0)
(-2.45831e-07 -8.78369e-09 0)
(-2.46092e-07 -1.36321e-08 0)
(-2.4992e-07 1.0816e-09 0)
(-2.50133e-07 -3.72293e-09 0)
(-2.50368e-07 -8.52665e-09 0)
(-2.50625e-07 -1.33313e-08 0)
(-2.54485e-07 1.27325e-09 0)
(-2.54701e-07 -3.50189e-09 0)
(-2.54936e-07 -8.27669e-09 0)
(-2.5519e-07 -1.3052e-08 0)
)
;

boundaryField
{
    plateFix
    {
        type            fixedValue;
        value           uniform (0 0 0);
    }
    plate
    {
        type            solidTraction;
        nonLinear       updatedLagrangian;
        traction        uniform (0 0 0);
        pressure        uniform 0;
        value           nonuniform List<vector> 
168
(
(7.57542e-09 4.89331e-09 5.54105e-28)
(7.76125e-09 -5.00752e-09 8.86984e-30)
(4.40818e-09 7.86204e-09 -2.21757e-27)
(4.62192e-09 -8.04009e-09 -1.7333e-27)
(1.64364e-09 1.0137e-08 1.60326e-27)
(1.90472e-09 -1.03773e-08 1.65346e-27)
(-6.47076e-10 1.16998e-08 -1.62033e-27)
(-3.23936e-10 -1.20031e-08 -7.11803e-28)
(-2.52307e-09 1.27781e-08 1.37216e-27)
(-2.12601e-09 -1.31521e-08 -4.86648e-28)
(-4.1304e-09 1.34773e-08 -1.49809e-27)
(-3.65111e-09 -1.39341e-08 2.12546e-27)
(-5.55803e-09 1.3908e-08 1.60361e-27)
(-4.99026e-09 -1.44638e-08 -9.99607e-28)
(-6.88133e-09 1.41408e-08 -1.53023e-27)
(-6.22045e-09 -1.48156e-08 2.39278e-28)
(-8.15071e-09 1.42327e-08 7.44176e-28)
(-7.39316e-09 -1.50503e-08 9.12314e-28)
(-9.40556e-09 1.42234e-08 3.10144e-28)
(-8.54859e-09 -1.52113e-08 -8.16621e-28)
(-1.06754e-08 1.41422e-08 -2.72134e-28)
(-9.71695e-09 -1.53317e-08 -1.22332e-29)
(-1.19843e-08 1.40092e-08 5.52237e-29)
(-1.0923e-08 -1.54355e-08 9.78957e-28)
(-1.3352e-08 1.38375e-08 1.63339e-28)
(-1.21871e-08 -1.55403e-08 -1.13034e-27)
(-1.47954e-08 1.36347e-08 -5.65216e-28)
(-1.3527e-08 -1.56581e-08 1.14325e-28)
(-1.63292e-08 1.3404e-08 8.57223e-28)
(-1.49584e-08 -1.5797e-08 -4.42511e-28)
(-1.79665e-08 1.31459e-08 3.0516e-28)
(-1.64954e-08 -1.59622e-08 1.28619e-28)
(-1.97195e-08 1.28585e-08 -8.77037e-28)
(-1.81513e-08 -1.6157e-08 2.73402e-28)
(-2.15998e-08 1.2539e-08 6.16035e-29)
(-1.9939e-08 -1.63836e-08 9.46324e-28)
(-2.36187e-08 1.21841e-08 -5.19356e-29)
(-2.18715e-08 -1.66432e-08 -7.97942e-28)
(-2.57882e-08 1.17903e-08 1.54881e-28)
(-2.39624e-08 -1.69372e-08 -2.32864e-29)
(-2.81208e-08 1.13549e-08 -7.57259e-28)
(-2.6226e-08 -1.72663e-08 5.23168e-28)
(-3.06302e-08 1.08755e-08 1.65936e-28)
(-2.8678e-08 -1.76313e-08 -7.6543e-28)
(-3.3434e-08 1.03306e-08 3.95847e-28)
(-3.14364e-08 -1.80479e-08 8.03069e-30)
(-3.6449e-08 9.73776e-09 -2.03012e-28)
(-3.44233e-08 -1.85001e-08 -4.48788e-28)
(-3.94792e-08 9.14069e-09 2.18556e-28)
(-3.74445e-08 -1.89542e-08 5.35292e-28)
(-4.25257e-08 8.54408e-09 2.47319e-28)
(-4.04995e-08 -1.94058e-08 2.57322e-28)
(-4.55897e-08 7.95219e-09 -2.52872e-28)
(-4.35878e-08 -1.9851e-08 -7.35907e-28)
(-4.86722e-08 7.36886e-09 -2.17986e-29)
(-4.67088e-08 -2.02862e-08 5.18807e-28)
(-5.17742e-08 6.79752e-09 2.78499e-28)
(-4.9862e-08 -2.0708e-08 2.13622e-28)
(-5.48966e-08 6.24121e-09 -3.36374e-28)
(-5.30469e-08 -2.11137e-08 -3.46371e-28)
(-5.80403e-08 5.70258e-09 6.43822e-30)
(-5.62629e-08 -2.15008e-08 1.75377e-28)
(-6.1206e-08 5.18395e-09 -5.47456e-29)
(-5.95095e-08 -2.18671e-08 -6.98443e-29)
(-6.43945e-08 4.68727e-09 -5.00303e-29)
(-6.2786e-08 -2.22107e-08 -2.26738e-28)
(-6.76064e-08 4.2142e-09 2.22131e-28)
(-6.60921e-08 -2.25301e-08 1.94408e-28)
(-7.08425e-08 3.76608e-09 -3.35818e-28)
(-6.94272e-08 -2.2824e-08 5.26497e-30)
(-7.41032e-08 3.34397e-09 3.73188e-28)
(-7.27908e-08 -2.30914e-08 3.63982e-29)
(-7.73892e-08 2.94868e-09 5.43743e-29)
(-7.61825e-08 -2.33315e-08 -1.68408e-28)
(-8.07009e-08 2.58077e-09 3.30738e-29)
(-7.96019e-08 -2.3544e-08 1.85687e-29)
(-8.40388e-08 2.24055e-09 -4.8057e-28)
(-8.30484e-08 -2.37284e-08 -1.90522e-28)
(-8.74033e-08 1.92815e-09 3.12754e-28)
(-8.65219e-08 -2.38847e-08 1.80458e-28)
(-9.07948e-08 1.6435e-09 1.38884e-28)
(-9.00218e-08 -2.40131e-08 3.57808e-29)
(-9.42136e-08 1.38635e-09 -4.39734e-28)
(-9.3548e-08 -2.41137e-08 -1.01939e-28)
(-9.766e-08 1.1563e-09 1.5167e-28)
(-9.71001e-08 -2.4187e-08 -1.17863e-29)
(-1.01134e-07 9.5282e-10 2.621e-28)
(-1.00678e-07 -2.42336e-08 2.85207e-28)
(-1.04637e-07 7.75235e-10 -2.01274e-28)
(-1.04281e-07 -2.42541e-08 -1.45256e-28)
(-1.08168e-07 6.22779e-10 -1.98636e-29)
(-1.0791e-07 -2.42494e-08 -1.848e-28)
(-1.11727e-07 4.94588e-10 -1.51338e-29)
(-1.11563e-07 -2.42203e-08 3.14356e-28)
(-1.15315e-07 3.89724e-10 1.99726e-28)
(-1.15241e-07 -2.41677e-08 6.04015e-29)
(-1.18931e-07 3.0718e-10 -1.65328e-28)
(-1.18945e-07 -2.40927e-08 -2.48845e-28)
(-1.22577e-07 2.45904e-10 1.57009e-28)
(-1.22673e-07 -2.39964e-08 3.53459e-29)
(-1.26251e-07 2.04802e-10 -6.81233e-29)
(-1.26425e-07 -2.38798e-08 1.80207e-28)
(-1.29954e-07 1.82755e-10 -1.10271e-28)
(-1.30202e-07 -2.3744e-08 5.66858e-29)
(-1.33687e-07 1.78627e-10 1.5618e-29)
(-1.34004e-07 -2.35902e-08 -2.03928e-28)
(-1.37448e-07 1.91277e-10 1.70771e-28)
(-1.3783e-07 -2.34195e-08 -7.17107e-29)
(-1.41238e-07 2.19566e-10 -2.55376e-29)
(-1.41681e-07 -2.32331e-08 1.63883e-28)
(-1.45058e-07 2.62368e-10 -2.91056e-28)
(-1.45557e-07 -2.30321e-08 -6.58613e-29)
(-1.48906e-07 3.18574e-10 1.46243e-28)
(-1.49457e-07 -2.28175e-08 -5.94318e-29)
(-1.52783e-07 3.871e-10 3.33565e-29)
(-1.53381e-07 -2.25905e-08 -6.7683e-29)
(-1.56689e-07 4.66895e-10 -2.05594e-29)
(-1.57331e-07 -2.23522e-08 2.06578e-28)
(-1.60623e-07 5.56942e-10 -9.57483e-29)
(-1.61305e-07 -2.21034e-08 -1.24566e-28)
(-1.64587e-07 6.56264e-10 8.75448e-29)
(-1.65305e-07 -2.18452e-08 6.21839e-29)
(-1.68579e-07 7.63927e-10 -4.83865e-30)
(-1.69329e-07 -2.15785e-08 -7.64402e-29)
(-1.72599e-07 8.79042e-10 2.4915e-29)
(-1.73379e-07 -2.13042e-08 -5.43712e-29)
(-1.76648e-07 1.00077e-09 -2.17923e-29)
(-1.77454e-07 -2.1023e-08 1.59278e-28)
(-1.80726e-07 1.12832e-09 8.59503e-29)
(-1.81554e-07 -2.07358e-08 -1.06026e-28)
(-1.84832e-07 1.26094e-09 -5.65996e-29)
(-1.8568e-07 -2.04433e-08 3.62832e-29)
(-1.88966e-07 1.39794e-09 -3.30042e-29)
(-1.89832e-07 -2.01461e-08 -1.30283e-28)
(-1.93128e-07 1.53868e-09 -1.58953e-29)
(-1.9401e-07 -1.98449e-08 1.3506e-28)
(-1.97319e-07 1.68256e-09 1.00714e-29)
(-1.98213e-07 -1.95402e-08 -1.71563e-29)
(-2.01538e-07 1.82902e-09 3.18742e-29)
(-2.02443e-07 -1.92325e-08 -1.08826e-29)
(-2.05785e-07 1.97755e-09 -6.31204e-29)
(-2.06699e-07 -1.89222e-08 2.45768e-29)
(-2.10061e-07 2.12768e-09 3.39537e-29)
(-2.10982e-07 -1.86098e-08 -2.52642e-29)
(-2.14365e-07 2.27898e-09 4.17047e-30)
(-2.15292e-07 -1.82955e-08 1.87145e-29)
(-2.18696e-07 2.43103e-09 -8.9683e-30)
(-2.19628e-07 -1.79797e-08 -4.51159e-29)
(-2.23057e-07 2.58343e-09 -4.69146e-29)
(-2.23992e-07 -1.76626e-08 2.98923e-29)
(-2.27446e-07 2.7358e-09 5.27588e-29)
(-2.28383e-07 -1.73442e-08 3.26968e-30)
(-2.31863e-07 2.88768e-09 -1.54202e-29)
(-2.32802e-07 -1.70246e-08 -2.43994e-30)
(-2.3631e-07 3.03861e-09 2.08603e-29)
(-2.3725e-07 -1.67037e-08 -2.33879e-30)
(-2.40785e-07 3.18783e-09 -2.88702e-30)
(-2.41725e-07 -1.6381e-08 1.46788e-29)
(-2.45289e-07 3.33562e-09 3.9102e-30)
(-2.46229e-07 -1.6057e-08 -4.12068e-30)
(-2.49816e-07 3.48383e-09 -1.3945e-30)
(-2.50756e-07 -1.57338e-08 -9.78651e-30)
(-2.54359e-07 3.65549e-09 -9.26201e-32)
(-2.56773e-07 1.39707e-09 -1.67969e-30)
(-2.56985e-07 -3.38737e-09 2.89055e-31)
(-2.5722e-07 -8.15594e-09 -2.14243e-31)
(-2.57478e-07 -1.29405e-08 4.53392e-30)
(-2.55299e-07 -1.54344e-08 3.39301e-30)
)
;
    }
    frontAndBackPlanes
    {
        type            empty;
    }
}


// ************************************************************************* //
