/*--------------------------------*- C++ -*----------------------------------*\
| =========                 |                                                 |
| \\      /  F ield         | foam-extend: Open Source CFD                    |
|  \\    /   O peration     | Version:     3.2                                |
|   \\  /    A nd           | Web:         http://www.extend-project.de       |
|    \\/     M anipulation  |                                                 |
\*---------------------------------------------------------------------------*/
FoamFile
{
    version     2.0;
    format      ascii;
    class       vectorField;
    location    "0.005";
    object      accumulatedFluidInterfaceDisplacement;
}
// * * * * * * * * * * * * * * * * * * * * * * * * * * * * * * * * * * * * * //


338
(
(-3.00561e-08 -1.78414e-08 -2.66159e-28)
(-3.20316e-08 1.06014e-08 5.98154e-29)
(-2.55567e-07 2.52457e-09 -1.81379e-30)
(-2.52088e-07 3.56811e-09 8.28842e-31)
(-2.47553e-07 3.40838e-09 8.79842e-31)
(-2.43038e-07 3.26057e-09 -6.4959e-30)
(-2.38548e-07 3.11225e-09 1.33873e-29)
(-2.34087e-07 2.96235e-09 6.67254e-30)
(-2.29655e-07 2.8111e-09 2.19998e-29)
(-2.25252e-07 2.65912e-09 -6.30904e-30)
(-2.20877e-07 2.50686e-09 -1.61438e-29)
(-2.16531e-07 2.35473e-09 9.90176e-30)
(-2.12213e-07 2.20315e-09 -2.77492e-30)
(-2.07923e-07 2.0525e-09 -9.58209e-30)
(-2.03662e-07 1.90321e-09 -4.03768e-30)
(-1.99429e-07 1.75574e-09 2.24392e-29)
(-1.95224e-07 1.61057e-09 -1.92486e-29)
(-1.91047e-07 1.46825e-09 -8.76119e-30)
(-1.86899e-07 1.32935e-09 -3.19762e-29)
(-1.82779e-07 1.19449e-09 -1.58681e-29)
(-1.78687e-07 1.06434e-09 4.49975e-29)
(-1.74624e-07 9.39622e-10 1.49389e-29)
(-1.70589e-07 8.21111e-10 -6.52556e-29)
(-1.66582e-07 7.0962e-10 3.13783e-29)
(-1.62605e-07 6.06017e-10 3.43198e-29)
(-1.58656e-07 5.11214e-10 -2.52484e-29)
(-1.54735e-07 4.26167e-10 2.90591e-29)
(-1.50844e-07 3.51875e-10 2.41959e-29)
(-1.46981e-07 2.89373e-10 -2.93671e-29)
(-1.43148e-07 2.3973e-10 -1.33214e-28)
(-1.39343e-07 2.04043e-10 6.13719e-29)
(-1.35567e-07 1.83431e-10 1.42929e-28)
(-1.3182e-07 1.79027e-10 -1.31525e-28)
(-1.28103e-07 1.91972e-10 -1.72501e-28)
(-1.24414e-07 2.23406e-10 6.44996e-29)
(-1.20754e-07 2.74457e-10 5.89098e-30)
(-1.17123e-07 3.46231e-10 3.80802e-29)
(-1.1352e-07 4.39804e-10 1.373e-28)
(-1.09947e-07 5.56204e-10 -3.47416e-29)
(-1.06402e-07 6.96406e-10 -6.73338e-29)
(-1.02885e-07 8.6131e-10 6.17568e-29)
(-9.93969e-08 1.05174e-09 8.02839e-29)
(-9.59366e-08 1.2684e-09 -1.90634e-28)
(-9.2504e-08 1.5119e-09 -5.12625e-29)
(-8.90988e-08 1.78272e-09 2.5882e-28)
(-8.57209e-08 2.08116e-09 -6.94458e-29)
(-8.23697e-08 2.40741e-09 -2.58449e-28)
(-7.90449e-08 2.76143e-09 4.30506e-29)
(-7.57461e-08 3.14299e-09 2.96193e-28)
(-7.24728e-08 3.55166e-09 -7.8848e-29)
(-6.92244e-08 3.98677e-09 -1.62051e-28)
(-6.60004e-08 4.44738e-09 1.92506e-28)
(-6.28002e-08 4.93228e-09 -9.34269e-29)
(-5.96232e-08 5.43999e-09 -1.27573e-28)
(-5.64685e-08 5.96869e-09 -1.74608e-28)
(-5.33356e-08 6.51625e-09 2.94669e-29)
(-5.02234e-08 7.0802e-09 2.05822e-28)
(-4.71312e-08 7.65767e-09 -1.09255e-28)
(-4.40579e-08 8.24545e-09 3.79041e-29)
(-4.10027e-08 8.83988e-09 7.51413e-29)
(-3.79644e-08 9.43693e-09 8.5807e-29)
(-3.49418e-08 1.00321e-08 2.58219e-28)
(-2.57103e-07 -5.7734e-09 1.42607e-30)
(-2.5688e-07 -9.96899e-10 5.09077e-31)
(-2.56389e-07 -1.41892e-08 2.91589e-30)
(-2.57349e-07 -1.055e-08 1.48578e-30)
(-3.29296e-08 -1.82761e-08 -2.27583e-28)
(-3.59337e-08 -1.87295e-08 -3.41795e-29)
(-3.89719e-08 -1.91826e-08 4.93622e-28)
(-4.20435e-08 -1.96312e-08 -3.23435e-28)
(-4.51482e-08 -2.00715e-08 -1.67405e-28)
(-4.82854e-08 -2.05001e-08 5.38343e-28)
(-5.14545e-08 -2.0914e-08 -1.41586e-28)
(-5.4655e-08 -2.13105e-08 -7.88884e-29)
(-5.78863e-08 -2.16873e-08 5.22374e-29)
(-6.11479e-08 -2.20423e-08 -1.98244e-28)
(-6.44393e-08 -2.23738e-08 1.46752e-29)
(-6.77599e-08 -2.26804e-08 9.23022e-29)
(-7.11093e-08 -2.29611e-08 4.50689e-30)
(-7.4487e-08 -2.32148e-08 -1.00356e-28)
(-7.78925e-08 -2.34411e-08 -1.40453e-28)
(-8.13255e-08 -2.36395e-08 -1.26608e-28)
(-8.47856e-08 -2.38098e-08 2.49373e-30)
(-8.82723e-08 -2.3952e-08 2.13208e-28)
(-9.17854e-08 -2.40664e-08 -7.54888e-29)
(-9.53245e-08 -2.41533e-08 -9.09707e-29)
(-9.88895e-08 -2.42132e-08 1.11808e-28)
(-1.0248e-07 -2.42466e-08 7.11734e-29)
(-1.06096e-07 -2.42544e-08 -1.18557e-28)
(-1.09737e-07 -2.42374e-08 1.36293e-28)
(-1.13403e-07 -2.41964e-08 2.12631e-28)
(-1.17094e-07 -2.41325e-08 -1.62972e-28)
(-1.20809e-07 -2.40467e-08 -6.21001e-29)
(-1.24549e-07 -2.39401e-08 1.37311e-28)
(-1.28314e-07 -2.38137e-08 6.82781e-29)
(-1.32104e-07 -2.36688e-08 -1.89007e-29)
(-1.35918e-07 -2.35064e-08 -1.50025e-28)
(-1.39756e-07 -2.33277e-08 -5.74986e-29)
(-1.43619e-07 -2.31339e-08 8.47976e-29)
(-1.47507e-07 -2.29259e-08 -4.25751e-29)
(-1.5142e-07 -2.2705e-08 -9.01119e-29)
(-1.55357e-07 -2.24722e-08 8.7801e-29)
(-1.59319e-07 -2.22285e-08 1.01705e-28)
(-1.63306e-07 -2.19749e-08 -5.7684e-30)
(-1.67318e-07 -2.17124e-08 2.26983e-29)
(-1.71355e-07 -2.14417e-08 -8.95785e-29)
(-1.75417e-07 -2.11639e-08 3.0557e-30)
(-1.79505e-07 -2.08797e-08 1.36548e-29)
(-1.83618e-07 -2.05898e-08 -4.24112e-29)
(-1.87757e-07 -2.02949e-08 -3.72256e-29)
(-1.91921e-07 -1.99956e-08 -2.35195e-29)
(-1.96112e-07 -1.96926e-08 3.7146e-29)
(-2.00328e-07 -1.93864e-08 2.10783e-29)
(-2.04571e-07 -1.90775e-08 2.29237e-29)
(-2.08841e-07 -1.87662e-08 -1.21107e-29)
(-2.13137e-07 -1.84529e-08 4.90533e-30)
(-2.1746e-07 -1.81379e-08 -2.68964e-29)
(-2.2181e-07 -1.78216e-08 -2.68957e-29)
(-2.26188e-07 -1.75039e-08 3.48086e-29)
(-2.30593e-07 -1.71851e-08 1.05605e-29)
(-2.35026e-07 -1.6865e-08 -2.5695e-30)
(-2.39487e-07 -1.65434e-08 7.61796e-30)
(-2.43977e-07 -1.62202e-08 9.87175e-30)
(-2.48493e-07 -1.58968e-08 -7.08828e-30)
(-2.53027e-07 -1.55857e-08 -6.22901e-30)
(7.76124e-09 -5.00753e-09 -3.87188e-28)
(6.1916e-09 -6.5238e-09 -8.75943e-28)
(3.26333e-09 -9.20869e-09 -9.33716e-30)
(7.90402e-10 -1.11902e-08 8.40286e-29)
(-1.22496e-09 -1.25777e-08 -3.40744e-28)
(-2.88853e-09 -1.35432e-08 6.00421e-28)
(-4.32064e-09 -1.4199e-08 3.68218e-28)
(-5.6053e-09 -1.46398e-08 -2.94002e-28)
(-6.80673e-09 -1.49332e-08 5.1854e-28)
(-7.97078e-09 -1.5131e-08 4.69981e-28)
(-9.13265e-09 -1.52717e-08 -5.23778e-28)
(-1.03198e-08 -1.53839e-08 3.77393e-28)
(-1.15548e-08 -1.54883e-08 6.92982e-29)
(-1.28568e-08 -1.55997e-08 -5.17391e-28)
(-1.42425e-08 -1.57281e-08 -5.47181e-28)
(-1.57266e-08 -1.58803e-08 -3.25885e-28)
(-1.7323e-08 -1.60604e-08 5.54385e-28)
(-1.90448e-08 -1.62712e-08 8.59387e-28)
(-2.09048e-08 -1.65144e-08 -1.94109e-29)
(-2.29165e-08 -1.67914e-08 -6.16894e-28)
(-2.50937e-08 -1.71031e-08 1.44295e-28)
(-2.74514e-08 -1.74504e-08 1.56859e-29)
(7.57544e-09 4.89331e-09 -6.16315e-28)
(-2.93756e-08 1.11136e-08 -2.98932e-28)
(-2.69546e-08 1.15713e-08 -8.9748e-29)
(-2.47036e-08 1.1986e-08 1.04996e-28)
(-2.26094e-08 1.23605e-08 -4.46332e-29)
(-2.06598e-08 1.26979e-08 -5.61619e-28)
(-1.88432e-08 1.30014e-08 -3.49563e-28)
(-1.7148e-08 1.32743e-08 4.25399e-28)
(-1.55624e-08 1.35188e-08 3.18604e-28)
(-1.40738e-08 1.37356e-08 1.21082e-28)
(-1.26682e-08 1.3923e-08 -2.34738e-28)
(-1.13299e-08 1.40754e-08 -1.62095e-28)
(-1.00406e-08 1.41826e-08 3.87295e-28)
(-8.7782e-09 1.42279e-08 8.41964e-28)
(-7.51607e-09 1.41866e-08 -6.61561e-28)
(-6.21971e-09 1.40243e-08 -4.72104e-28)
(-4.84422e-09 1.36926e-08 -1.81845e-28)
(-3.32672e-09 1.31276e-08 9.71564e-29)
(-1.58505e-09 1.22389e-08 2.01676e-28)
(4.98317e-10 1.09184e-08 4.53737e-28)
(3.02595e-09 8.99949e-09 1.31718e-28)
(5.99184e-09 6.37764e-09 -1.47402e-27)
(-3.00561e-08 -1.78414e-08 -2.66159e-28)
(-3.20316e-08 1.06014e-08 5.98154e-29)
(-2.55567e-07 2.52457e-09 -1.81379e-30)
(-2.52088e-07 3.56811e-09 8.28842e-31)
(-2.47553e-07 3.40838e-09 8.79842e-31)
(-2.43038e-07 3.26057e-09 -6.4959e-30)
(-2.38548e-07 3.11225e-09 1.33873e-29)
(-2.34087e-07 2.96235e-09 6.67254e-30)
(-2.29655e-07 2.8111e-09 2.19998e-29)
(-2.25252e-07 2.65912e-09 -6.30904e-30)
(-2.20877e-07 2.50686e-09 -1.61438e-29)
(-2.16531e-07 2.35473e-09 9.90176e-30)
(-2.12213e-07 2.20315e-09 -2.77492e-30)
(-2.07923e-07 2.0525e-09 -9.58209e-30)
(-2.03662e-07 1.90321e-09 -4.03768e-30)
(-1.99429e-07 1.75574e-09 2.24392e-29)
(-1.95224e-07 1.61057e-09 -1.92486e-29)
(-1.91047e-07 1.46825e-09 -8.76119e-30)
(-1.86899e-07 1.32935e-09 -3.19762e-29)
(-1.82779e-07 1.19449e-09 -1.58681e-29)
(-1.78687e-07 1.06434e-09 4.49975e-29)
(-1.74624e-07 9.39622e-10 1.49389e-29)
(-1.70589e-07 8.21111e-10 -6.52556e-29)
(-1.66582e-07 7.0962e-10 3.13783e-29)
(-1.62605e-07 6.06017e-10 3.43198e-29)
(-1.58656e-07 5.11214e-10 -2.52484e-29)
(-1.54735e-07 4.26167e-10 2.90591e-29)
(-1.50844e-07 3.51875e-10 2.41959e-29)
(-1.46981e-07 2.89373e-10 -2.93671e-29)
(-1.43148e-07 2.3973e-10 -1.33214e-28)
(-1.39343e-07 2.04043e-10 6.13719e-29)
(-1.35567e-07 1.83431e-10 1.42929e-28)
(-1.3182e-07 1.79027e-10 -1.31525e-28)
(-1.28103e-07 1.91972e-10 -1.72501e-28)
(-1.24414e-07 2.23406e-10 6.44996e-29)
(-1.20754e-07 2.74457e-10 5.89098e-30)
(-1.17123e-07 3.46231e-10 3.80802e-29)
(-1.1352e-07 4.39804e-10 1.373e-28)
(-1.09947e-07 5.56204e-10 -3.47416e-29)
(-1.06402e-07 6.96406e-10 -6.73338e-29)
(-1.02885e-07 8.6131e-10 6.17568e-29)
(-9.93969e-08 1.05174e-09 8.02839e-29)
(-9.59366e-08 1.2684e-09 -1.90634e-28)
(-9.2504e-08 1.5119e-09 -5.12625e-29)
(-8.90988e-08 1.78272e-09 2.5882e-28)
(-8.57209e-08 2.08116e-09 -6.94458e-29)
(-8.23697e-08 2.40741e-09 -2.58449e-28)
(-7.90449e-08 2.76143e-09 4.30506e-29)
(-7.57461e-08 3.14299e-09 2.96193e-28)
(-7.24728e-08 3.55166e-09 -7.8848e-29)
(-6.92244e-08 3.98677e-09 -1.62051e-28)
(-6.60004e-08 4.44738e-09 1.92506e-28)
(-6.28002e-08 4.93228e-09 -9.34269e-29)
(-5.96232e-08 5.43999e-09 -1.27573e-28)
(-5.64685e-08 5.96869e-09 -1.74608e-28)
(-5.33356e-08 6.51625e-09 2.94669e-29)
(-5.02234e-08 7.0802e-09 2.05822e-28)
(-4.71312e-08 7.65767e-09 -1.09255e-28)
(-4.40579e-08 8.24545e-09 3.79041e-29)
(-4.10027e-08 8.83988e-09 7.51413e-29)
(-3.79644e-08 9.43693e-09 8.5807e-29)
(-3.49418e-08 1.00321e-08 2.58219e-28)
(-2.57103e-07 -5.7734e-09 1.42607e-30)
(-2.5688e-07 -9.96899e-10 5.09077e-31)
(-2.56389e-07 -1.41892e-08 2.91589e-30)
(-2.57349e-07 -1.055e-08 1.48578e-30)
(-3.29296e-08 -1.82761e-08 -2.27583e-28)
(-3.59337e-08 -1.87295e-08 -3.41795e-29)
(-3.89719e-08 -1.91826e-08 4.93622e-28)
(-4.20435e-08 -1.96312e-08 -3.23435e-28)
(-4.51482e-08 -2.00715e-08 -1.67405e-28)
(-4.82854e-08 -2.05001e-08 5.38343e-28)
(-5.14545e-08 -2.0914e-08 -1.41586e-28)
(-5.4655e-08 -2.13105e-08 -7.88884e-29)
(-5.78863e-08 -2.16873e-08 5.22374e-29)
(-6.11479e-08 -2.20423e-08 -1.98244e-28)
(-6.44393e-08 -2.23738e-08 1.46752e-29)
(-6.77599e-08 -2.26804e-08 9.23022e-29)
(-7.11093e-08 -2.29611e-08 4.50689e-30)
(-7.4487e-08 -2.32148e-08 -1.00356e-28)
(-7.78925e-08 -2.34411e-08 -1.40453e-28)
(-8.13255e-08 -2.36395e-08 -1.26608e-28)
(-8.47856e-08 -2.38098e-08 2.49373e-30)
(-8.82723e-08 -2.3952e-08 2.13208e-28)
(-9.17854e-08 -2.40664e-08 -7.54888e-29)
(-9.53245e-08 -2.41533e-08 -9.09707e-29)
(-9.88895e-08 -2.42132e-08 1.11808e-28)
(-1.0248e-07 -2.42466e-08 7.11734e-29)
(-1.06096e-07 -2.42544e-08 -1.18557e-28)
(-1.09737e-07 -2.42374e-08 1.36293e-28)
(-1.13403e-07 -2.41964e-08 2.12631e-28)
(-1.17094e-07 -2.41325e-08 -1.62972e-28)
(-1.20809e-07 -2.40467e-08 -6.21001e-29)
(-1.24549e-07 -2.39401e-08 1.37311e-28)
(-1.28314e-07 -2.38137e-08 6.82781e-29)
(-1.32104e-07 -2.36688e-08 -1.89007e-29)
(-1.35918e-07 -2.35064e-08 -1.50025e-28)
(-1.39756e-07 -2.33277e-08 -5.74986e-29)
(-1.43619e-07 -2.31339e-08 8.47976e-29)
(-1.47507e-07 -2.29259e-08 -4.25751e-29)
(-1.5142e-07 -2.2705e-08 -9.01119e-29)
(-1.55357e-07 -2.24722e-08 8.7801e-29)
(-1.59319e-07 -2.22285e-08 1.01705e-28)
(-1.63306e-07 -2.19749e-08 -5.7684e-30)
(-1.67318e-07 -2.17124e-08 2.26983e-29)
(-1.71355e-07 -2.14417e-08 -8.95785e-29)
(-1.75417e-07 -2.11639e-08 3.0557e-30)
(-1.79505e-07 -2.08797e-08 1.36548e-29)
(-1.83618e-07 -2.05898e-08 -4.24112e-29)
(-1.87757e-07 -2.02949e-08 -3.72256e-29)
(-1.91921e-07 -1.99956e-08 -2.35195e-29)
(-1.96112e-07 -1.96926e-08 3.7146e-29)
(-2.00328e-07 -1.93864e-08 2.10783e-29)
(-2.04571e-07 -1.90775e-08 2.29237e-29)
(-2.08841e-07 -1.87662e-08 -1.21107e-29)
(-2.13137e-07 -1.84529e-08 4.90533e-30)
(-2.1746e-07 -1.81379e-08 -2.68964e-29)
(-2.2181e-07 -1.78216e-08 -2.68957e-29)
(-2.26188e-07 -1.75039e-08 3.48086e-29)
(-2.30593e-07 -1.71851e-08 1.05605e-29)
(-2.35026e-07 -1.6865e-08 -2.5695e-30)
(-2.39487e-07 -1.65434e-08 7.61796e-30)
(-2.43977e-07 -1.62202e-08 9.87175e-30)
(-2.48493e-07 -1.58968e-08 -7.08828e-30)
(-2.53027e-07 -1.55857e-08 -6.22901e-30)
(7.76124e-09 -5.00753e-09 -3.87188e-28)
(6.1916e-09 -6.5238e-09 -8.75943e-28)
(3.26333e-09 -9.20869e-09 -9.33716e-30)
(7.90402e-10 -1.11902e-08 8.40286e-29)
(-1.22496e-09 -1.25777e-08 -3.40744e-28)
(-2.88853e-09 -1.35432e-08 6.00421e-28)
(-4.32064e-09 -1.4199e-08 3.68218e-28)
(-5.6053e-09 -1.46398e-08 -2.94002e-28)
(-6.80673e-09 -1.49332e-08 5.1854e-28)
(-7.97078e-09 -1.5131e-08 4.69981e-28)
(-9.13265e-09 -1.52717e-08 -5.23778e-28)
(-1.03198e-08 -1.53839e-08 3.77393e-28)
(-1.15548e-08 -1.54883e-08 6.92982e-29)
(-1.28568e-08 -1.55997e-08 -5.17391e-28)
(-1.42425e-08 -1.57281e-08 -5.47181e-28)
(-1.57266e-08 -1.58803e-08 -3.25885e-28)
(-1.7323e-08 -1.60604e-08 5.54385e-28)
(-1.90448e-08 -1.62712e-08 8.59387e-28)
(-2.09048e-08 -1.65144e-08 -1.94109e-29)
(-2.29165e-08 -1.67914e-08 -6.16894e-28)
(-2.50937e-08 -1.71031e-08 1.44295e-28)
(-2.74514e-08 -1.74504e-08 1.56859e-29)
(7.57544e-09 4.89331e-09 -6.16315e-28)
(-2.93756e-08 1.11136e-08 -2.98932e-28)
(-2.69546e-08 1.15713e-08 -8.9748e-29)
(-2.47036e-08 1.1986e-08 1.04996e-28)
(-2.26094e-08 1.23605e-08 -4.46332e-29)
(-2.06598e-08 1.26979e-08 -5.61619e-28)
(-1.88432e-08 1.30014e-08 -3.49563e-28)
(-1.7148e-08 1.32743e-08 4.25399e-28)
(-1.55624e-08 1.35188e-08 3.18604e-28)
(-1.40738e-08 1.37356e-08 1.21082e-28)
(-1.26682e-08 1.3923e-08 -2.34738e-28)
(-1.13299e-08 1.40754e-08 -1.62095e-28)
(-1.00406e-08 1.41826e-08 3.87295e-28)
(-8.7782e-09 1.42279e-08 8.41964e-28)
(-7.51607e-09 1.41866e-08 -6.61561e-28)
(-6.21971e-09 1.40243e-08 -4.72104e-28)
(-4.84422e-09 1.36926e-08 -1.81845e-28)
(-3.32672e-09 1.31276e-08 9.71564e-29)
(-1.58505e-09 1.22389e-08 2.01676e-28)
(4.98317e-10 1.09184e-08 4.53737e-28)
(3.02595e-09 8.99949e-09 1.31718e-28)
(5.99184e-09 6.37764e-09 -1.47402e-27)
)


// ************************************************************************* //
