/*--------------------------------*- C++ -*----------------------------------*\
| =========                 |                                                 |
| \\      /  F ield         | foam-extend: Open Source CFD                    |
|  \\    /   O peration     | Version:     3.1                                |
|   \\  /    A nd           | Web:         http://www.extend-project.de       |
|    \\/     M anipulation  |                                                 |
\*---------------------------------------------------------------------------*/
FoamFile
{
    version     2.0;
    format      ascii;
    class       volScalarField;
    location    "0.005";
    object      p;
}
// * * * * * * * * * * * * * * * * * * * * * * * * * * * * * * * * * * * * * //

dimensions      [0 2 -2 0 0 0 0];

internalField   nonuniform List<scalar> 
20940
(
5.76723
5.768
5.76862
5.7692
5.76972
5.77019
5.77062
5.771
5.77134
5.77165
5.77192
5.77215
5.77236
5.77255
5.7727
5.77284
5.77296
5.77306
5.77315
5.77322
5.77328
5.77335
5.74891
5.75042
5.75153
5.75259
5.75355
5.75443
5.75523
5.75595
5.7566
5.75719
5.75772
5.75819
5.75862
5.759
5.75934
5.75965
5.75991
5.76015
5.76037
5.76055
5.76073
5.76089
5.73069
5.73293
5.73453
5.73608
5.73749
5.73877
5.73994
5.741
5.74196
5.74283
5.74362
5.74433
5.74497
5.74555
5.74607
5.74653
5.74696
5.74733
5.74767
5.74797
5.74825
5.74854
5.71262
5.71559
5.71769
5.71972
5.72157
5.72326
5.72479
5.72619
5.72745
5.7286
5.72965
5.73059
5.73145
5.73222
5.73292
5.73354
5.73411
5.73462
5.73508
5.7355
5.73589
5.73628
5.69475
5.69845
5.70104
5.70355
5.70584
5.70793
5.70983
5.71156
5.71313
5.71456
5.71585
5.71703
5.71809
5.71905
5.71992
5.72071
5.72142
5.72206
5.72264
5.72316
5.72365
5.72415
5.67712
5.68154
5.68463
5.68762
5.69034
5.69283
5.69509
5.69715
5.69902
5.70072
5.70226
5.70366
5.70493
5.70608
5.70712
5.70805
5.7089
5.70967
5.71036
5.71099
5.71158
5.71217
5.65976
5.6649
5.66848
5.67195
5.67511
5.67799
5.68061
5.683
5.68517
5.68714
5.68892
5.69054
5.69201
5.69334
5.69454
5.69562
5.6966
5.69749
5.69829
5.69901
5.69969
5.70038
5.6427
5.64856
5.65263
5.65658
5.66018
5.66345
5.66643
5.66914
5.67161
5.67384
5.67587
5.6777
5.67936
5.68086
5.68222
5.68344
5.68455
5.68555
5.68644
5.68725
5.68802
5.68878
5.62598
5.63255
5.63712
5.64155
5.64558
5.64924
5.65258
5.65561
5.65837
5.66086
5.66312
5.66517
5.66702
5.66868
5.67019
5.67154
5.67277
5.67387
5.67486
5.67575
5.67658
5.67742
5.60961
5.61689
5.62195
5.62686
5.63133
5.63539
5.63909
5.64244
5.64548
5.64824
5.65073
5.65298
5.65501
5.65684
5.65849
5.65997
5.6613
5.6625
5.66357
5.66452
5.66542
5.66632
5.59361
5.60159
5.60716
5.61256
5.61746
5.62192
5.62597
5.62965
5.63298
5.636
5.63872
5.64117
5.64338
5.64536
5.64714
5.64874
5.65017
5.65145
5.6526
5.65361
5.65455
5.6555
5.578
5.58666
5.59274
5.59863
5.60398
5.60884
5.61326
5.61726
5.62089
5.62416
5.62711
5.62976
5.63214
5.63427
5.63618
5.63789
5.63941
5.64077
5.64197
5.64303
5.64401
5.64499
5.56283
5.57208
5.57869
5.58507
5.59087
5.59614
5.60094
5.60527
5.6092
5.61273
5.61591
5.61876
5.62132
5.6236
5.62563
5.62744
5.62905
5.63047
5.63173
5.63282
5.63382
5.63481
5.54822
5.55801
5.56527
5.57213
5.57838
5.58406
5.58921
5.59387
5.59807
5.60185
5.60525
5.60829
5.611
5.61342
5.61557
5.61746
5.61914
5.62061
5.6219
5.62301
5.62402
5.625
5.53365
5.54305
5.55099
5.5584
5.56521
5.57143
5.57706
5.58217
5.58676
5.5909
5.5946
5.5979
5.60084
5.60345
5.60575
5.60777
5.60954
5.61109
5.61243
5.61357
5.61458
5.61555
5.52401
5.53266
5.5411
5.5488
5.55582
5.56221
5.56799
5.57322
5.57792
5.58213
5.58589
5.58924
5.5922
5.59482
5.59712
5.59913
5.60088
5.60239
5.60369
5.60479
5.60576
5.6067
5.5184
5.52699
5.53544
5.54297
5.54981
5.55601
5.5616
5.56664
5.57116
5.5752
5.57879
5.58198
5.58479
5.58726
5.58942
5.59129
5.59291
5.5943
5.59548
5.59647
5.59734
5.59817
5.51191
5.52031
5.52871
5.53618
5.54297
5.54912
5.55465
5.55962
5.56407
5.56804
5.57156
5.57467
5.5774
5.57979
5.58186
5.58365
5.58519
5.58649
5.58759
5.5885
5.58928
5.59001
5.50568
5.51407
5.5224
5.52982
5.53655
5.54262
5.54808
5.55298
5.55736
5.56125
5.56469
5.56773
5.57038
5.5727
5.5747
5.57641
5.57787
5.5791
5.58013
5.58096
5.58167
5.58231
5.49965
5.50806
5.51632
5.5237
5.53037
5.53639
5.5418
5.54665
5.55097
5.5548
5.55818
5.56115
5.56375
5.56599
5.56793
5.56958
5.57098
5.57214
5.5731
5.57388
5.57452
5.57508
5.49386
5.50232
5.51053
5.51787
5.52451
5.53049
5.53586
5.54066
5.54494
5.54872
5.55206
5.55498
5.55753
5.55972
5.5616
5.5632
5.56454
5.56565
5.56656
5.56728
5.56786
5.56835
5.48839
5.4969
5.50507
5.51239
5.51901
5.52497
5.53031
5.53508
5.53932
5.54308
5.54638
5.54926
5.55176
5.55392
5.55575
5.55731
5.5586
5.55966
5.56052
5.56119
5.56172
5.56216
5.48327
5.49185
5.5
5.50731
5.51391
5.51986
5.52519
5.52994
5.53416
5.53789
5.54117
5.54402
5.5465
5.54862
5.55042
5.55193
5.55319
5.55421
5.55502
5.55565
5.55613
5.55651
5.47856
5.48721
5.49534
5.50266
5.50927
5.51521
5.52053
5.52528
5.52949
5.53321
5.53647
5.53931
5.54176
5.54386
5.54563
5.54711
5.54833
5.54932
5.55009
5.55067
5.55111
5.55143
5.4743
5.48302
5.49116
5.49849
5.5051
5.51105
5.51638
5.52113
5.52535
5.52906
5.53232
5.53515
5.53759
5.53967
5.54143
5.54288
5.54407
5.54502
5.54576
5.5463
5.54669
5.54696
5.47053
5.47933
5.48747
5.49482
5.50145
5.50742
5.51276
5.51753
5.52176
5.52548
5.52874
5.53158
5.53402
5.53609
5.53783
5.53927
5.54044
5.54136
5.54206
5.54257
5.54291
5.54312
5.4673
5.47616
5.48432
5.49169
5.49834
5.50433
5.5097
5.51449
5.51874
5.52248
5.52576
5.52861
5.53106
5.53314
5.53488
5.53632
5.53747
5.53837
5.53904
5.5395
5.53979
5.53994
5.46461
5.47354
5.48171
5.48911
5.49579
5.50181
5.50721
5.51203
5.5163
5.52008
5.52339
5.52626
5.52874
5.53084
5.5326
5.53404
5.53519
5.53608
5.53673
5.53716
5.53739
5.53747
5.4626
5.47158
5.47977
5.48719
5.4939
5.49994
5.50537
5.51022
5.51453
5.51835
5.52169
5.5246
5.52711
5.52925
5.53104
5.53251
5.53367
5.53456
5.5352
5.53561
5.53579
5.53578
5.46077
5.46978
5.47798
5.48544
5.49218
5.49828
5.50375
5.50866
5.51303
5.5169
5.52032
5.52331
5.5259
5.52812
5.53
5.53156
5.53282
5.5338
5.53451
5.53496
5.53514
5.53509
6.12476
6.11607
6.10829
6.10135
6.09518
6.08972
6.08491
6.08069
6.07702
6.07385
6.07112
6.06881
6.06687
6.06527
6.06397
6.06295
6.06216
6.0616
6.06122
6.06102
6.06097
6.06107
6.1236
6.11498
6.10723
6.10033
6.09419
6.08876
6.08398
6.07978
6.07613
6.07297
6.07026
6.06797
6.06604
6.06445
6.06316
6.06214
6.06137
6.06081
6.06044
6.06023
6.06019
6.06029
6.12156
6.11303
6.10533
6.09846
6.09237
6.08696
6.08221
6.07804
6.0744
6.07126
6.06857
6.06629
6.06438
6.0628
6.06152
6.06051
6.05974
6.05919
6.05883
6.05864
6.0586
6.05871
6.11841
6.11002
6.1024
6.09561
6.08957
6.08422
6.07951
6.07538
6.07178
6.06867
6.06601
6.06375
6.06186
6.0603
6.05904
6.05805
6.05729
6.05676
6.05641
6.05622
6.0562
6.05632
6.11428
6.10608
6.09854
6.09184
6.08588
6.0806
6.07594
6.07186
6.06831
6.06524
6.06261
6.06038
6.05851
6.05698
6.05574
6.05477
6.05403
6.05351
6.05317
6.053
6.05299
6.05313
6.10923
6.10124
6.09381
6.08721
6.08134
6.07613
6.07154
6.06752
6.06402
6.06099
6.0584
6.0562
6.05437
6.05286
6.05164
6.05069
6.04997
6.04947
6.04915
6.049
6.049
6.04915
6.10333
6.09558
6.08826
6.08178
6.076
6.07088
6.06636
6.06239
6.05894
6.05596
6.05341
6.05125
6.04944
6.04796
6.04677
6.04584
6.04514
6.04466
6.04436
6.04422
6.04424
6.04441
6.09668
6.08919
6.08198
6.07561
6.06993
6.06489
6.06044
6.05653
6.05313
6.05019
6.04768
6.04555
6.04378
6.04232
6.04115
6.04024
6.03957
6.0391
6.03881
6.03869
6.03873
6.03891
6.08936
6.08213
6.07503
6.06878
6.06319
6.05823
6.05384
6.04999
6.04664
6.04374
6.04126
6.03916
6.03741
6.03597
6.03482
6.03393
6.03327
6.03282
6.03255
6.03243
6.03248
6.03268
6.08148
6.07451
6.06751
6.06136
6.05585
6.05096
6.04663
6.04283
6.03952
6.03665
6.0342
6.03212
6.03039
6.02897
6.02783
6.02695
6.0263
6.02585
6.02559
6.02548
6.02554
6.02575
6.07313
6.06639
6.05948
6.05343
6.048
6.04316
6.03888
6.03512
6.03184
6.02899
6.02655
6.02448
6.02276
6.02134
6.02021
6.01933
6.01868
6.01824
6.01798
6.01787
6.01793
6.01813
6.06441
6.05789
6.05105
6.04507
6.0397
6.03491
6.03067
6.02693
6.02365
6.02082
6.01838
6.01631
6.01458
6.01316
6.01202
6.01113
6.01047
6.01002
6.00974
6.00963
6.00967
6.00987
6.05544
6.04909
6.04232
6.0364
6.03107
6.0263
6.02207
6.01833
6.01506
6.01221
6.00975
6.00767
6.00592
6.00447
6.00331
6.00239
6.00171
6.00123
6.00094
6.0008
6.00082
6.00098
6.04622
6.03982
6.03311
6.02724
6.02195
6.01722
6.013
6.00927
6.00599
6.00313
6.00066
5.99855
5.99677
5.99529
5.99409
5.99315
5.99243
5.99191
5.99158
5.99141
5.99139
5.99151
6.03778
6.03135
6.02482
6.01889
6.01353
6.0087
6.00437
6.00053
5.99714
5.99416
5.99158
5.98936
5.98748
5.9859
5.98461
5.98358
5.98277
5.98218
5.98178
5.98154
5.98146
5.98153
6.02643
6.01906
6.01311
6.00753
6.00242
5.99781
5.99366
5.98996
5.98669
5.98381
5.9813
5.97914
5.97729
5.97573
5.97444
5.9734
5.97258
5.97196
5.97152
5.97125
5.97113
5.97116
6.01099
6.00336
5.99806
5.99298
5.98839
5.98426
5.98056
5.97726
5.97434
5.97177
5.96953
5.96759
5.96592
5.96452
5.96335
5.96239
5.96162
5.96103
5.9606
5.96031
5.96015
5.96012
5.99554
5.9884
5.98366
5.97902
5.97484
5.97107
5.96769
5.96468
5.96201
5.95965
5.95759
5.9558
5.95426
5.95295
5.95185
5.95094
5.95021
5.94963
5.94919
5.94888
5.94869
5.9486
5.97957
5.97298
5.9687
5.96449
5.96071
5.95731
5.95425
5.95153
5.94911
5.94698
5.9451
5.94347
5.94206
5.94086
5.93984
5.93899
5.9383
5.93774
5.9373
5.93698
5.93676
5.93662
5.96323
5.95724
5.9534
5.94962
5.94622
5.94317
5.94042
5.93797
5.93579
5.93387
5.93218
5.9307
5.92942
5.92832
5.92738
5.92659
5.92594
5.9254
5.92498
5.92466
5.92442
5.92425
5.94656
5.94118
5.93776
5.9344
5.93137
5.92865
5.9262
5.92402
5.92207
5.92035
5.91883
5.91751
5.91635
5.91535
5.9145
5.91377
5.91317
5.91267
5.91226
5.91194
5.9117
5.9115
5.92956
5.9248
5.9218
5.91884
5.91617
5.91377
5.91162
5.90969
5.90798
5.90645
5.90511
5.90393
5.9029
5.90201
5.90124
5.90058
5.90003
5.89956
5.89918
5.89888
5.89863
5.89843
5.91228
5.90813
5.90552
5.90296
5.90065
5.89857
5.8967
5.89503
5.89354
5.89221
5.89104
5.89001
5.8891
5.88832
5.88764
5.88705
5.88656
5.88614
5.88579
5.8855
5.88527
5.88507
5.89473
5.89118
5.88897
5.8868
5.88484
5.88307
5.88149
5.88007
5.8788
5.87767
5.87667
5.87578
5.87501
5.87433
5.87374
5.87324
5.8728
5.87243
5.87212
5.87186
5.87165
5.87146
5.87693
5.87399
5.87218
5.87039
5.86877
5.86732
5.86602
5.86485
5.8638
5.86287
5.86204
5.86131
5.86066
5.8601
5.8596
5.85917
5.8588
5.85849
5.85822
5.858
5.8578
5.85763
5.85893
5.85659
5.85517
5.85377
5.8525
5.85136
5.85033
5.84941
5.84859
5.84785
5.8472
5.84662
5.8461
5.84565
5.84526
5.84491
5.84461
5.84435
5.84413
5.84394
5.84378
5.84363
5.84075
5.83902
5.83799
5.83697
5.83605
5.83523
5.83448
5.83381
5.83321
5.83267
5.83219
5.83176
5.83138
5.83105
5.83075
5.83049
5.83027
5.83007
5.8299
5.82975
5.82962
5.8295
5.82245
5.82132
5.82069
5.82006
5.81949
5.81897
5.8185
5.81808
5.81771
5.81737
5.81706
5.81679
5.81655
5.81633
5.81614
5.81597
5.81581
5.81568
5.81556
5.81546
5.81536
5.81527
5.80406
5.80354
5.80331
5.80306
5.80284
5.80264
5.80245
5.80228
5.80213
5.80199
5.80187
5.80175
5.80164
5.80154
5.80146
5.80137
5.8013
5.80123
5.80116
5.80111
5.80105
5.80099
5.78562
5.78572
5.78589
5.78603
5.78615
5.78627
5.78637
5.78645
5.78652
5.78659
5.78664
5.78668
5.78671
5.78673
5.78675
5.78676
5.78676
5.78676
5.78675
5.78674
5.78673
5.78671
5.78483
5.78491
5.78506
5.78519
5.7853
5.7854
5.7855
5.78558
5.78564
5.7857
5.78575
5.78579
5.78582
5.78584
5.78585
5.78586
5.78586
5.78586
5.78585
5.78584
5.78583
5.78581
5.80326
5.80273
5.80248
5.80221
5.80198
5.80177
5.80158
5.8014
5.80124
5.8011
5.80097
5.80085
5.80074
5.80064
5.80055
5.80047
5.80039
5.80032
5.80026
5.8002
5.80014
5.80009
5.82164
5.82049
5.81985
5.8192
5.81861
5.81809
5.81762
5.81719
5.81681
5.81647
5.81616
5.81589
5.81564
5.81542
5.81523
5.81506
5.8149
5.81477
5.81465
5.81455
5.81445
5.81436
5.83993
5.83817
5.83713
5.8361
5.83517
5.83433
5.83358
5.83291
5.8323
5.83176
5.83128
5.83085
5.83047
5.83013
5.82984
5.82958
5.82935
5.82915
5.82898
5.82883
5.8287
5.82858
5.85808
5.85572
5.85429
5.85287
5.8516
5.85045
5.84942
5.8485
5.84767
5.84693
5.84628
5.84569
5.84518
5.84473
5.84433
5.84399
5.84369
5.84343
5.84321
5.84302
5.84286
5.84271
5.87604
5.87309
5.87126
5.86947
5.86785
5.86639
5.86509
5.86391
5.86287
5.86193
5.86111
5.86037
5.85973
5.85916
5.85867
5.85824
5.85787
5.85756
5.85729
5.85707
5.85687
5.8567
5.8938
5.89024
5.88803
5.88585
5.88389
5.88212
5.88054
5.87912
5.87785
5.87672
5.87572
5.87484
5.87407
5.87339
5.8728
5.8723
5.87186
5.87149
5.87118
5.87093
5.87071
5.87052
5.9113
5.90715
5.90454
5.90198
5.89967
5.89759
5.89573
5.89406
5.89257
5.89125
5.89008
5.88905
5.88815
5.88737
5.88669
5.88611
5.88561
5.88519
5.88485
5.88456
5.88433
5.88413
5.92852
5.92377
5.92077
5.91782
5.91516
5.91277
5.91062
5.9087
5.90699
5.90548
5.90414
5.90296
5.90194
5.90105
5.90028
5.89963
5.89908
5.89861
5.89823
5.89793
5.89769
5.89749
5.94545
5.94009
5.93669
5.93334
5.93033
5.92762
5.92518
5.92301
5.92108
5.91936
5.91785
5.91653
5.91538
5.91439
5.91354
5.91282
5.91221
5.91171
5.91131
5.91099
5.91075
5.91055
5.96205
5.95609
5.95227
5.94852
5.94514
5.9421
5.93938
5.93694
5.93478
5.93287
5.93118
5.92972
5.92844
5.92735
5.92642
5.92563
5.92498
5.92445
5.92403
5.92371
5.92347
5.9233
5.97831
5.97176
5.96751
5.96334
5.95959
5.95621
5.95318
5.95048
5.94808
5.94596
5.9441
5.94248
5.94108
5.93989
5.93888
5.93803
5.93734
5.93678
5.93635
5.93603
5.93581
5.93567
5.99418
5.98711
5.98241
5.97782
5.97367
5.96994
5.96659
5.96361
5.96096
5.95862
5.95658
5.9548
5.95328
5.95198
5.95089
5.94999
5.94926
5.94868
5.94824
5.94794
5.94774
5.94765
6.00954
6.00199
5.99675
5.99173
5.98719
5.9831
5.97944
5.97617
5.97328
5.97074
5.96851
5.96659
5.96494
5.96355
5.96239
5.96143
5.96067
5.96009
5.95966
5.95937
5.95922
5.95919
6.02487
6.0176
6.01173
6.00621
6.00117
5.9966
5.9925
5.98885
5.98561
5.98276
5.98028
5.97814
5.97631
5.97477
5.97349
5.97246
5.97164
5.97103
5.9706
5.97033
5.97021
5.97024
6.03616
6.02983
6.02339
6.01754
6.01225
6.00748
6.00321
5.99941
5.99606
5.99312
5.99057
5.98837
5.98651
5.98495
5.98367
5.98265
5.98186
5.98127
5.98087
5.98064
5.98056
5.98063
6.0446
6.03831
6.0317
6.02591
6.0207
6.01602
6.01186
6.00818
6.00494
6.00211
5.99967
5.99758
5.99582
5.99436
5.99318
5.99224
5.99153
5.99103
5.9907
5.99053
5.99051
5.99063
6.05382
6.04759
6.04092
6.03509
6.02983
6.02513
6.02095
6.01726
6.01403
6.01121
6.00879
6.00673
6.005
6.00357
6.00242
6.00152
6.00084
6.00037
6.00008
5.99995
5.99997
6.00013
6.06282
6.05642
6.04969
6.04379
6.0385
6.03378
6.02959
6.02589
6.02266
6.01986
6.01745
6.01541
6.0137
6.01229
6.01117
6.01029
6.00964
6.00919
6.00892
6.00881
6.00886
6.00905
6.07158
6.06497
6.05817
6.0522
6.04684
6.04207
6.03785
6.03413
6.03089
6.02808
6.02567
6.02362
6.02192
6.02052
6.0194
6.01853
6.01789
6.01746
6.0172
6.0171
6.01715
6.01736
6.08
6.07315
6.06625
6.06019
6.05476
6.04993
6.04566
6.0419
6.03863
6.03579
6.03337
6.03131
6.0296
6.02819
6.02707
6.0262
6.02556
6.02512
6.02486
6.02476
6.02482
6.02502
6.08797
6.08086
6.07386
6.06768
6.06217
6.05726
6.05293
6.04912
6.04581
6.04294
6.04049
6.03841
6.03668
6.03526
6.03412
6.03324
6.03259
6.03214
6.03187
6.03176
6.03181
6.03201
6.09539
6.08801
6.08089
6.0746
6.06899
6.064
6.0596
6.05574
6.05237
6.04947
6.04698
6.04487
6.04311
6.04167
6.04051
6.03961
6.03894
6.03848
6.0382
6.03808
6.03812
6.0383
6.10216
6.09452
6.08728
6.08087
6.07516
6.07008
6.06561
6.06168
6.05826
6.05531
6.05278
6.05064
6.04885
6.04738
6.0462
6.04528
6.04459
6.04411
6.04381
6.04368
6.0437
6.04387
6.1082
6.10031
6.09295
6.08642
6.0806
6.07544
6.07089
6.0669
6.06343
6.06042
6.05785
6.05567
6.05385
6.05235
6.05115
6.0502
6.04949
6.04899
6.04868
6.04853
6.04853
6.04868
6.11341
6.10529
6.09782
6.09117
6.08526
6.08002
6.0754
6.07134
6.06782
6.06477
6.06215
6.05994
6.05808
6.05656
6.05533
6.05436
6.05363
6.05311
6.05278
6.05261
6.0526
6.05274
6.11772
6.1094
6.10182
6.09508
6.08908
6.08376
6.07907
6.07497
6.07139
6.0683
6.06565
6.0634
6.06152
6.05997
6.05871
6.05773
6.05698
6.05644
6.05609
6.05591
6.05589
6.05601
6.12106
6.11257
6.10491
6.09808
6.09201
6.08663
6.08189
6.07774
6.07412
6.07099
6.06831
6.06604
6.06413
6.06256
6.06128
6.06028
6.05952
6.05897
6.05861
6.05841
6.05838
6.05849
6.12329
6.1147
6.10698
6.1001
6.09398
6.08856
6.08379
6.0796
6.07596
6.07281
6.07011
6.06781
6.06589
6.0643
6.06302
6.062
6.06123
6.06067
6.0603
6.0601
6.06006
6.06016
6.12466
6.11598
6.10821
6.10127
6.09511
6.08965
6.08485
6.08063
6.07696
6.07379
6.07107
6.06876
6.06682
6.06522
6.06392
6.0629
6.06212
6.06155
6.06118
6.06097
6.06093
6.06102
5.76644
5.74812
5.72989
5.71181
5.69392
5.67627
5.6589
5.64183
5.62509
5.6087
5.5927
5.57708
5.5619
5.54728
5.5327
5.52306
5.51746
5.51097
5.50475
5.49872
5.49294
5.48747
5.48236
5.47765
5.4734
5.46964
5.46641
5.46373
5.46172
5.4599
5.76719
5.7496
5.73211
5.71476
5.69761
5.68069
5.66404
5.64768
5.63166
5.61599
5.60068
5.58574
5.57115
5.55708
5.54211
5.53172
5.52605
5.51938
5.51315
5.50714
5.5014
5.49598
5.49094
5.4863
5.48213
5.47844
5.47527
5.47265
5.4707
5.4689
5.7678
5.7507
5.7337
5.71686
5.7002
5.68377
5.66762
5.65176
5.63623
5.62106
5.60626
5.59183
5.57778
5.56435
5.55006
5.54017
5.53451
5.52778
5.52148
5.5154
5.50961
5.50416
5.49909
5.49444
5.49026
5.48658
5.48343
5.48082
5.47888
5.4771
5.76836
5.75175
5.73524
5.71888
5.7027
5.68676
5.67108
5.65571
5.64066
5.62597
5.61166
5.59772
5.58416
5.57121
5.55747
5.54787
5.54205
5.53526
5.5289
5.52278
5.51696
5.51148
5.5064
5.50176
5.49759
5.49392
5.4908
5.48822
5.4863
5.48455
5.76887
5.75271
5.73664
5.72072
5.70499
5.68948
5.67424
5.6593
5.64469
5.63044
5.61657
5.60308
5.58996
5.57747
5.5643
5.5549
5.5489
5.54206
5.53563
5.52946
5.5236
5.5181
5.51301
5.50836
5.5042
5.50056
5.49745
5.4949
5.49301
5.4913
5.76933
5.75357
5.73791
5.7224
5.70707
5.69196
5.67712
5.66257
5.64836
5.6345
5.62103
5.60794
5.59524
5.58315
5.57051
5.56129
5.5551
5.5482
5.54171
5.53548
5.52959
5.52406
5.51896
5.51431
5.51015
5.50652
5.50344
5.50092
5.49905
5.49739
5.76975
5.75436
5.73907
5.72393
5.70896
5.69422
5.67974
5.66555
5.6517
5.6382
5.62508
5.61236
5.60003
5.5883
5.57616
5.56708
5.56069
5.55374
5.54718
5.5409
5.53496
5.52941
5.52429
5.51963
5.51548
5.51187
5.50881
5.50632
5.50448
5.50286
5.77013
5.75508
5.74013
5.72532
5.71069
5.69628
5.68212
5.66826
5.65473
5.64155
5.62876
5.61637
5.60438
5.59296
5.58126
5.57231
5.56573
5.55872
5.55208
5.54574
5.53976
5.53418
5.52904
5.52438
5.52023
5.51663
5.51359
5.51113
5.50933
5.50777
5.77047
5.75573
5.74108
5.72658
5.71226
5.69815
5.68429
5.67073
5.65748
5.6446
5.63209
5.61999
5.6083
5.59717
5.58586
5.57701
5.57026
5.56317
5.55645
5.55006
5.54404
5.53842
5.53326
5.52859
5.52445
5.52086
5.51784
5.51541
5.51364
5.51214
5.77077
5.75631
5.74195
5.72773
5.71368
5.69984
5.68626
5.67296
5.65998
5.64735
5.63511
5.62326
5.61183
5.60095
5.59
5.58123
5.5743
5.56714
5.56035
5.5539
5.54782
5.54218
5.53699
5.53231
5.52817
5.52458
5.52159
5.51918
5.51745
5.51601
5.77103
5.75684
5.74274
5.72877
5.71497
5.70139
5.68804
5.67498
5.66224
5.64984
5.63783
5.62621
5.61502
5.60435
5.5937
5.58499
5.57789
5.57066
5.56379
5.55728
5.55116
5.54548
5.54027
5.53557
5.53142
5.52785
5.52487
5.52249
5.5208
5.51943
5.77127
5.75731
5.74344
5.72971
5.71614
5.70278
5.68966
5.67682
5.66428
5.65209
5.64028
5.62887
5.61787
5.60739
5.59701
5.58834
5.58108
5.57377
5.56683
5.56025
5.55408
5.54836
5.54312
5.53841
5.53425
5.53068
5.52771
5.52537
5.52371
5.52241
5.77147
5.75773
5.74408
5.73056
5.71721
5.70405
5.69113
5.67847
5.66613
5.65412
5.64249
5.63125
5.62042
5.61011
5.59995
5.59131
5.5839
5.5765
5.56948
5.56285
5.55663
5.55086
5.5456
5.54086
5.53669
5.53312
5.53016
5.52784
5.52622
5.525
5.77165
5.75811
5.74466
5.73133
5.71817
5.70519
5.69245
5.67997
5.6678
5.65595
5.64447
5.63338
5.62271
5.61253
5.60255
5.59392
5.58637
5.57889
5.5718
5.5651
5.55882
5.55302
5.54772
5.54296
5.53877
5.53519
5.53224
5.52994
5.52835
5.52722
5.77181
5.75845
5.74518
5.73203
5.71903
5.70623
5.69365
5.68133
5.6693
5.6576
5.64625
5.63529
5.62474
5.61467
5.60485
5.59622
5.58852
5.58096
5.5738
5.56703
5.5607
5.55486
5.54952
5.54473
5.54053
5.53694
5.53399
5.5317
5.53014
5.5291
5.77195
5.75875
5.74565
5.73266
5.71982
5.70717
5.69474
5.68255
5.67066
5.65908
5.64785
5.637
5.62655
5.61657
5.60688
5.59823
5.5904
5.58276
5.57551
5.56868
5.5623
5.55641
5.55103
5.54622
5.54199
5.53838
5.53542
5.53314
5.53161
5.53066
5.77206
5.75902
5.74607
5.73322
5.72053
5.70802
5.69572
5.68366
5.67188
5.66041
5.64928
5.63852
5.62816
5.61824
5.60865
5.59998
5.59202
5.58429
5.57697
5.57008
5.56364
5.5577
5.55229
5.54743
5.54317
5.53954
5.53657
5.5343
5.53278
5.53192
5.77216
5.75926
5.74644
5.73374
5.72117
5.70879
5.6966
5.68466
5.67298
5.66161
5.65056
5.63988
5.62958
5.61972
5.6102
5.60149
5.5934
5.5856
5.5782
5.57124
5.56475
5.55876
5.55331
5.54842
5.54412
5.54046
5.53747
5.53518
5.53367
5.5329
5.77225
5.75947
5.74678
5.7342
5.72175
5.70948
5.6974
5.68556
5.67397
5.66268
5.65171
5.64108
5.63083
5.62101
5.61153
5.6028
5.59459
5.5867
5.57923
5.57221
5.56566
5.55962
5.55412
5.54919
5.54486
5.54116
5.53814
5.53583
5.53431
5.53361
5.77232
5.75966
5.74708
5.73461
5.72227
5.7101
5.69812
5.68636
5.67486
5.66363
5.65272
5.64214
5.63193
5.62212
5.61267
5.6039
5.59558
5.58761
5.58007
5.57298
5.56638
5.56029
5.55475
5.54978
5.54541
5.54167
5.53861
5.53626
5.53471
5.53406
5.77239
5.75983
5.74736
5.735
5.72277
5.71069
5.6988
5.68713
5.67569
5.66453
5.65366
5.64312
5.63293
5.62312
5.61368
5.60487
5.59644
5.58839
5.58077
5.57362
5.56696
5.56082
5.55523
5.55021
5.54579
5.54201
5.53889
5.5365
5.53489
5.53425
5.77245
5.76
5.74765
5.73539
5.72326
5.71129
5.69949
5.6879
5.67653
5.66543
5.65461
5.6441
5.63392
5.62411
5.61466
5.60581
5.59727
5.58912
5.58141
5.57418
5.56746
5.56126
5.55561
5.55053
5.54606
5.54222
5.53904
5.53657
5.53489
5.53419
3.83186
3.83186
3.83186
3.83186
3.83186
3.83186
3.83186
3.83186
3.83186
3.83186
3.83185
3.83185
3.83185
3.83185
3.83185
3.83184
3.83184
3.83184
3.83184
3.83183
3.83183
3.83183
3.83183
3.83183
3.84421
3.84421
3.84421
3.84421
3.8442
3.8442
3.8442
3.8442
3.8442
3.8442
3.8442
3.84419
3.84419
3.84419
3.84419
3.84418
3.84418
3.84418
3.84418
3.84417
3.84417
3.84417
3.84417
3.84416
3.85655
3.85655
3.85655
3.85655
3.85655
3.85655
3.85654
3.85654
3.85654
3.85654
3.85654
3.85653
3.85653
3.85653
3.85653
3.85652
3.85652
3.85652
3.85652
3.85651
3.85651
3.85651
3.8565
3.8565
3.86889
3.86889
3.86889
3.86889
3.86889
3.86889
3.86889
3.86889
3.86888
3.86888
3.86888
3.86888
3.86887
3.86887
3.86887
3.86886
3.86886
3.86886
3.86885
3.86885
3.86885
3.86885
3.86884
3.86884
3.88124
3.88124
3.88123
3.88123
3.88123
3.88123
3.88123
3.88123
3.88123
3.88122
3.88122
3.88122
3.88121
3.88121
3.88121
3.8812
3.8812
3.8812
3.88119
3.88119
3.88119
3.88118
3.88118
3.88118
3.89358
3.89358
3.89358
3.89358
3.89358
3.89357
3.89357
3.89357
3.89357
3.89357
3.89356
3.89356
3.89356
3.89355
3.89355
3.89355
3.89354
3.89354
3.89353
3.89353
3.89353
3.89352
3.89352
3.89352
3.90592
3.90592
3.90592
3.90592
3.90592
3.90592
3.90592
3.90591
3.90591
3.90591
3.9059
3.9059
3.9059
3.90589
3.90589
3.90589
3.90588
3.90588
3.90587
3.90587
3.90587
3.90586
3.90586
3.90585
3.91827
3.91827
3.91827
3.91826
3.91826
3.91826
3.91826
3.91826
3.91825
3.91825
3.91825
3.91824
3.91824
3.91824
3.91823
3.91823
3.91822
3.91822
3.91821
3.91821
3.9182
3.9182
3.91819
3.91819
3.93061
3.93061
3.93061
3.93061
3.93061
3.93061
3.9306
3.9306
3.9306
3.93059
3.93059
3.93059
3.93058
3.93058
3.93057
3.93057
3.93056
3.93056
3.93055
3.93055
3.93054
3.93054
3.93053
3.93053
3.94296
3.94296
3.94296
3.94295
3.94295
3.94295
3.94295
3.94294
3.94294
3.94294
3.94293
3.94293
3.94292
3.94292
3.94291
3.94291
3.9429
3.9429
3.94289
3.94289
3.94288
3.94288
3.94287
3.94286
3.9553
3.9553
3.9553
3.9553
3.9553
3.9553
3.95529
3.95529
3.95529
3.95528
3.95528
3.95527
3.95527
3.95526
3.95526
3.95525
3.95524
3.95524
3.95523
3.95523
3.95522
3.95521
3.95521
3.9552
3.96765
3.96765
3.96765
3.96765
3.96764
3.96764
3.96764
3.96763
3.96763
3.96763
3.96762
3.96761
3.96761
3.9676
3.9676
3.96759
3.96758
3.96758
3.96757
3.96756
3.96756
3.96755
3.96754
3.96754
3.98
3.97999
3.97999
3.97999
3.97999
3.97999
3.97998
3.97998
3.97997
3.97997
3.97996
3.97996
3.97995
3.97995
3.97994
3.97993
3.97992
3.97992
3.97991
3.9799
3.9799
3.97989
3.97988
3.97987
3.99234
3.99234
3.99234
3.99234
3.99234
3.99233
3.99233
3.99233
3.99232
3.99231
3.99231
3.9923
3.9923
3.99229
3.99228
3.99227
3.99227
3.99226
3.99225
3.99224
3.99223
3.99223
3.99222
3.99221
4.00469
4.00469
4.00469
4.00469
4.00468
4.00468
4.00468
4.00467
4.00467
4.00466
4.00465
4.00465
4.00464
4.00463
4.00462
4.00462
4.00461
4.0046
4.00459
4.00458
4.00457
4.00456
4.00455
4.00455
4.01704
4.01704
4.01704
4.01703
4.01703
4.01703
4.01702
4.01702
4.01701
4.01701
4.017
4.01699
4.01698
4.01698
4.01697
4.01696
4.01695
4.01694
4.01693
4.01692
4.01691
4.0169
4.01689
4.01688
4.02939
4.02939
4.02939
4.02938
4.02938
4.02938
4.02937
4.02937
4.02936
4.02935
4.02935
4.02934
4.02933
4.02932
4.02931
4.0293
4.02929
4.02928
4.02927
4.02926
4.02925
4.02924
4.02923
4.02922
4.04174
4.04174
4.04174
4.04173
4.04173
4.04173
4.04172
4.04171
4.04171
4.0417
4.04169
4.04168
4.04167
4.04166
4.04165
4.04164
4.04163
4.04162
4.04161
4.0416
4.04158
4.04157
4.04156
4.04155
4.05409
4.05409
4.05409
4.05408
4.05408
4.05408
4.05407
4.05406
4.05406
4.05405
4.05404
4.05403
4.05402
4.05401
4.054
4.05398
4.05397
4.05396
4.05395
4.05394
4.05392
4.05391
4.0539
4.05389
4.06644
4.06644
4.06644
4.06644
4.06643
4.06643
4.06642
4.06641
4.06641
4.0664
4.06639
4.06638
4.06637
4.06635
4.06634
4.06633
4.06631
4.0663
4.06629
4.06627
4.06626
4.06625
4.06623
4.06622
4.0788
4.07879
4.07879
4.07879
4.07878
4.07878
4.07877
4.07876
4.07876
4.07875
4.07874
4.07872
4.07871
4.0787
4.07869
4.07867
4.07866
4.07864
4.07863
4.07861
4.0786
4.07858
4.07857
4.07855
4.09115
4.09115
4.09115
4.09114
4.09114
4.09113
4.09113
4.09112
4.09111
4.0911
4.09109
4.09107
4.09106
4.09105
4.09103
4.09102
4.091
4.09098
4.09097
4.09095
4.09093
4.09092
4.0909
4.09089
4.10351
4.10351
4.1035
4.1035
4.10349
4.10349
4.10348
4.10347
4.10346
4.10345
4.10344
4.10342
4.10341
4.10339
4.10338
4.10336
4.10334
4.10333
4.10331
4.10329
4.10327
4.10325
4.10324
4.10322
4.11586
4.11586
4.11586
4.11586
4.11585
4.11584
4.11583
4.11582
4.11581
4.1158
4.11579
4.11577
4.11576
4.11574
4.11572
4.1157
4.11569
4.11567
4.11565
4.11563
4.11561
4.11559
4.11557
4.11555
4.12822
4.12822
4.12822
4.12821
4.12821
4.1282
4.12819
4.12818
4.12817
4.12815
4.12814
4.12812
4.12811
4.12809
4.12807
4.12805
4.12803
4.12801
4.12799
4.12797
4.12795
4.12792
4.1279
4.12788
4.14058
4.14058
4.14058
4.14057
4.14057
4.14056
4.14055
4.14054
4.14052
4.14051
4.14049
4.14048
4.14046
4.14044
4.14042
4.1404
4.14037
4.14035
4.14033
4.14031
4.14028
4.14026
4.14024
4.14021
4.15295
4.15294
4.15294
4.15293
4.15293
4.15292
4.15291
4.1529
4.15288
4.15287
4.15285
4.15283
4.15281
4.15279
4.15277
4.15274
4.15272
4.1527
4.15267
4.15265
4.15262
4.15259
4.15257
4.15254
4.16531
4.16531
4.1653
4.1653
4.16529
4.16528
4.16527
4.16526
4.16524
4.16522
4.1652
4.16518
4.16516
4.16514
4.16512
4.16509
4.16507
4.16504
4.16501
4.16498
4.16496
4.16493
4.1649
4.16488
4.17768
4.17767
4.17767
4.17766
4.17765
4.17764
4.17763
4.17762
4.1776
4.17758
4.17756
4.17754
4.17752
4.17749
4.17747
4.17744
4.17741
4.17738
4.17735
4.17732
4.17729
4.17726
4.17723
4.1772
4.19004
4.19004
4.19004
4.19003
4.19002
4.19001
4.19
4.18998
4.18996
4.18994
4.18992
4.1899
4.18987
4.18985
4.18982
4.18979
4.18976
4.18973
4.1897
4.18966
4.18963
4.1896
4.18957
4.18953
4.20241
4.20241
4.20241
4.2024
4.20239
4.20238
4.20236
4.20235
4.20233
4.20231
4.20228
4.20226
4.20223
4.2022
4.20217
4.20214
4.20211
4.20207
4.20204
4.202
4.20197
4.20193
4.2019
4.20186
4.21479
4.21479
4.21478
4.21477
4.21476
4.21475
4.21473
4.21472
4.21469
4.21467
4.21465
4.21462
4.21459
4.21456
4.21453
4.21449
4.21446
4.21442
4.21438
4.21434
4.2143
4.21427
4.21423
4.21419
4.22716
4.22716
4.22716
4.22715
4.22714
4.22712
4.22711
4.22709
4.22706
4.22704
4.22701
4.22698
4.22695
4.22692
4.22688
4.22684
4.22681
4.22677
4.22672
4.22668
4.22664
4.2266
4.22656
4.22652
4.23954
4.23954
4.23954
4.23953
4.23951
4.2395
4.23948
4.23946
4.23944
4.23941
4.23938
4.23935
4.23931
4.23928
4.23924
4.2392
4.23916
4.23911
4.23907
4.23902
4.23898
4.23893
4.23889
4.23884
4.25193
4.25192
4.25192
4.25191
4.25189
4.25188
4.25186
4.25184
4.25181
4.25178
4.25175
4.25171
4.25168
4.25164
4.2516
4.25155
4.25151
4.25146
4.25141
4.25137
4.25132
4.25127
4.25122
4.25117
4.26431
4.26431
4.2643
4.26429
4.26428
4.26426
4.26424
4.26421
4.26419
4.26416
4.26412
4.26408
4.26404
4.264
4.26396
4.26391
4.26386
4.26381
4.26376
4.26371
4.26365
4.2636
4.26355
4.26349
4.2767
4.2767
4.27669
4.27668
4.27667
4.27665
4.27662
4.2766
4.27657
4.27653
4.2765
4.27646
4.27641
4.27637
4.27632
4.27627
4.27622
4.27616
4.27611
4.27605
4.27599
4.27593
4.27588
4.27582
4.2891
4.28909
4.28908
4.28907
4.28906
4.28904
4.28901
4.28898
4.28895
4.28892
4.28888
4.28883
4.28879
4.28874
4.28869
4.28863
4.28858
4.28852
4.28846
4.28839
4.28833
4.28827
4.2882
4.28814
4.30149
4.30149
4.30148
4.30147
4.30145
4.30143
4.3014
4.30137
4.30134
4.3013
4.30126
4.30121
4.30116
4.30111
4.30105
4.301
4.30093
4.30087
4.30081
4.30074
4.30067
4.3006
4.30053
4.30046
4.3139
4.31389
4.31388
4.31387
4.31385
4.31383
4.3138
4.31377
4.31373
4.31369
4.31364
4.3136
4.31354
4.31349
4.31343
4.31336
4.3133
4.31323
4.31316
4.31308
4.31301
4.31294
4.31286
4.31279
4.3263
4.3263
4.32629
4.32628
4.32626
4.32623
4.3262
4.32617
4.32613
4.32608
4.32603
4.32598
4.32592
4.32586
4.3258
4.32573
4.32566
4.32559
4.32551
4.32543
4.32535
4.32527
4.32519
4.32511
4.33872
4.33871
4.3387
4.33869
4.33867
4.33864
4.33861
4.33857
4.33853
4.33848
4.33843
4.33837
4.33831
4.33825
4.33818
4.3381
4.33803
4.33795
4.33786
4.33778
4.33769
4.33761
4.33752
4.33743
4.35114
4.35113
4.35112
4.3511
4.35108
4.35105
4.35102
4.35098
4.35093
4.35088
4.35083
4.35077
4.3507
4.35063
4.35056
4.35048
4.3504
4.35031
4.35022
4.35013
4.35004
4.34994
4.34985
4.34975
4.36356
4.36355
4.36354
4.36353
4.3635
4.36347
4.36344
4.36339
4.36335
4.36329
4.36323
4.36317
4.3631
4.36302
4.36294
4.36286
4.36277
4.36268
4.36258
4.36248
4.36238
4.36228
4.36217
4.36207
4.37599