/*--------------------------------*- C++ -*----------------------------------*\
| =========                 |                                                 |
| \\      /  F ield         | foam-extend: Open Source CFD                    |
|  \\    /   O peration     | Version:     3.1                                |
|   \\  /    A nd           | Web:         http://www.extend-project.de       |
|    \\/     M anipulation  |                                                 |
\*---------------------------------------------------------------------------*/
FoamFile
{
    version     2.0;
    format      ascii;
    class       surfaceScalarField;
    location    "0.005";
    object      phi;
}
// * * * * * * * * * * * * * * * * * * * * * * * * * * * * * * * * * * * * * //

dimensions      [0 3 -1 0 0 0 0];

internalField   nonuniform List<scalar> 
41420
(
-1.2011e-07
1.82107e-06
-1.82969e-06
1.28738e-07
-1.10958e-07
1.72264e-06
-1.73179e-06
-1.0232e-07
1.64034e-06
-1.64898e-06
-9.40021e-08
1.56265e-06
-1.57097e-06
-8.60174e-08
1.48953e-06
-1.49752e-06
-7.8373e-08
1.42067e-06
-1.42832e-06
-7.10698e-08
1.35567e-06
-1.36297e-06
-6.41064e-08
1.29418e-06
-1.30115e-06
-5.74793e-08
1.23591e-06
-1.24253e-06
-5.11829e-08
1.18055e-06
-1.18685e-06
-4.52107e-08
1.12788e-06
-1.13385e-06
-3.95555e-08
1.07764e-06
-1.0833e-06
-3.42098e-08
1.02963e-06
-1.03498e-06
-2.91664e-08
9.83607e-07
-9.88651e-07
-2.44177e-08
9.39217e-07
-9.43966e-07
-1.99547e-08
8.95686e-07
-9.00149e-07
-1.57663e-08
8.51123e-07
-8.55311e-07
-1.18411e-08
8.01077e-07
-8.05002e-07
-8.18007e-09
7.36111e-07
-7.39772e-07
-4.8223e-09
6.38671e-07
-6.42028e-07
-1.93335e-09
4.80456e-07
-4.83345e-07
2.22582e-07
-2.24515e-07
-1.27799e-07
1.81132e-06
1.37547e-07
-1.16833e-07
1.71168e-06
-1.06624e-07
1.63013e-06
-9.68496e-08
1.55288e-06
-8.75498e-08
1.48023e-06
-7.87343e-08
1.41186e-06
-7.04018e-08
1.34734e-06
-6.25485e-08
1.28633e-06
-5.5167e-08
1.22852e-06
-4.82476e-08
1.17364e-06
-4.17783e-08
1.12141e-06
-3.57455e-08
1.07161e-06
-3.01342e-08
1.02402e-06
-2.49291e-08
9.78402e-07
-2.01161e-08
9.34404e-07
-1.56877e-08
8.91257e-07
-1.16508e-08
8.47086e-07
-8.04085e-09
7.97467e-07
-4.93393e-09
7.33004e-07
-2.44661e-09
6.36183e-07
-7.30439e-10
4.7874e-07
2.21851e-07
-1.67274e-07
1.79806e-06
1.80535e-07
-1.52198e-07
1.6966e-06
-1.38337e-07
1.61627e-06
-1.25129e-07
1.53967e-06
-1.12631e-07
1.46773e-06
-1.00845e-07
1.40007e-06
-8.97593e-08
1.33625e-06
-7.93604e-08
1.27593e-06
-6.96308e-08
1.21879e-06
-6.05509e-08
1.16456e-06
-5.2099e-08
1.11296e-06
-4.42518e-08
1.06376e-06
-3.69849e-08
1.01675e-06
-3.02738e-08
9.71691e-07
-2.40977e-08
9.28228e-07
-1.84465e-08
8.85606e-07
-1.33366e-08
8.41976e-07
-8.83229e-09
7.92962e-07
-5.06328e-09
7.29235e-07
-2.21438e-09
6.33334e-07
-4.87173e-10
4.77013e-07
2.21364e-07
-2.03486e-07
1.78164e-06
2.19906e-07
-1.84414e-07
1.67753e-06
-1.67097e-07
1.59895e-06
-1.50659e-07
1.52323e-06
-1.35166e-07
1.45224e-06
-1.20609e-07
1.38551e-06
-1.06963e-07
1.3226e-06
-9.42015e-08
1.26317e-06
-8.22987e-08
1.20689e-06
-7.12256e-08
1.15348e-06
-6.09517e-08
1.10268e-06
-5.14455e-08
1.05425e-06
-4.26743e-08
1.00798e-06
-3.46067e-08
9.63624e-07
-2.72169e-08
9.20838e-07
-2.04959e-08
8.78885e-07
-1.44725e-08
8.35952e-07
-9.24226e-09
7.87732e-07
-4.98506e-09
7.24978e-07
-1.93422e-09
6.30284e-07
-2.85592e-10
4.75364e-07
2.21078e-07
-2.34133e-07
1.76265e-06
2.53119e-07
-2.11459e-07
1.65486e-06
-1.91084e-07
1.57858e-06
-1.71792e-07
1.50394e-06
-1.53661e-07
1.43411e-06
-1.3667e-07
1.36852e-06
-1.20781e-07
1.30671e-06
-1.05958e-07
1.24835e-06
-9.21665e-08
1.1931e-06
-7.93705e-08
1.14069e-06
-6.75323e-08
1.09084e-06
-5.66137e-08
1.04334e-06
-4.65758e-08
9.97942e-07
-3.73815e-08
9.54429e-07
-2.90019e-08
9.12458e-07
-2.14305e-08
8.71313e-07
-1.47099e-08
8.29232e-07
-8.96827e-09
7.8199e-07
-4.43625e-09
7.20446e-07
-1.38911e-09
6.27236e-07
6.6623e-12
4.73969e-07
2.21085e-07
-2.59601e-07
1.74165e-06
2.806e-07
-2.33722e-07
1.62898e-06
-2.10694e-07
1.55555e-06
-1.88919e-07
1.48216e-06
-1.685e-07
1.41369e-06
-1.49401e-07
1.34942e-06
-1.31572e-07
1.28888e-06
-1.14971e-07
1.23174e-06
-9.95564e-08
1.17768e-06
-8.52855e-08
1.12642e-06
-7.21165e-08
1.07767e-06
-6.0006e-08
1.03123e-06
-4.8911e-08
9.86847e-07
-3.87905e-08
9.44309e-07
-2.96135e-08
9.03281e-07
-2.1377e-08
8.63077e-07
-1.4139e-08
8.21994e-07
-8.06288e-09
7.75914e-07
-3.43397e-09
7.15817e-07
-5.71682e-10
6.24374e-07
4.01444e-10
4.72995e-07
2.21486e-07
-2.8042e-07
1.71915e-06
3.02924e-07
-2.51738e-07
1.60029e-06
-2.26459e-07
1.53027e-06
-2.02572e-07
1.45828e-06
-1.80207e-07
1.39133e-06
-1.59314e-07
1.32853e-06
-1.39834e-07
1.2694e-06
-1.21718e-07
1.21363e-06
-1.04919e-07
1.16089e-06
-8.9393e-08
1.11089e-06
-7.50949e-08
1.06338e-06
-6.19795e-08
1.01811e-06
-5.00011e-08
9.74869e-07
-3.91168e-08
9.33424e-07
-2.92953e-08
8.9346e-07
-2.05379e-08
8.5432e-07
-1.29195e-08
8.14375e-07
-6.64188e-09
7.69637e-07
-2.05071e-09
7.11226e-07
4.83697e-10
6.2184e-07
8.89868e-10
4.72589e-07
2.22376e-07
-2.97297e-07
1.69558e-06
3.20866e-07
-2.66208e-07
1.56921e-06
-2.39073e-07
1.50314e-06
-2.13436e-07
1.43264e-06
-1.89456e-07
1.36735e-06
-1.67067e-07
1.30614e-06
-1.46201e-07
1.24854e-06
-1.26804e-07
1.19423e-06
-1.08829e-07
1.14291e-06
-9.22315e-08
1.09429e-06
-7.69673e-08
1.04811e-06
-6.29916e-08
1.00413e-06
-5.02592e-08
9.62136e-07
-3.87275e-08
9.21893e-07
-2.83664e-08
8.83099e-07
-1.91832e-08
8.45136e-07
-1.12704e-08
8.06463e-07
-4.87018e-09
7.63237e-07
-3.95998e-10
7.06752e-07
1.71994e-09
6.19724e-07
1.45503e-09
4.72854e-07
2.23831e-07
-3.1097e-07
1.67126e-06
3.35291e-07
-2.7789e-07
1.53613e-06
-2.49285e-07
1.47453e-06
-2.22261e-07
1.40562e-06
-1.9699e-07
1.34208e-06
-1.73389e-07
1.28254e-06
-1.5138e-07
1.22653e-06
-1.3091e-07
1.17376e-06
-1.11935e-07
1.12394e-06
-9.44126e-08
1.07677e-06
-7.8304e-08
1.032e-06
-6.35685e-08
9.89399e-07
-5.01642e-08
9.48732e-07
-3.80516e-08
9.0978e-07
-2.72039e-08
8.72251e-07
-1.76352e-08
8.35568e-07
-9.45622e-09
7.98283e-07
-2.9512e-09
7.56732e-07
1.39186e-09
7.02409e-07
3.0628e-09
6.18053e-07
2.07409e-09
4.73843e-07
2.25905e-07
-3.22075e-07
1.64626e-06
3.47071e-07
-2.87495e-07
1.50155e-06
-2.57814e-07
1.44485e-06
-2.29782e-07
1.37758e-06
-2.03553e-07
1.31585e-06
-1.79018e-07
1.25801e-06
-1.56098e-07
1.20361e-06
-1.34741e-07
1.15241e-06
-1.14913e-07
1.10411e-06
-9.65788e-08
1.05844e-06
-7.97094e-08
1.01513e-06
-6.4272e-08
9.73961e-07
-5.0232e-08
9.34692e-07
-3.75559e-08
8.97104e-07
-2.62225e-08
8.60918e-07
-1.62535e-08
8.25599e-07
-7.77701e-09
7.89807e-07
-1.11949e-09
7.50074e-07
3.1502e-09
6.98139e-07
4.423e-09
6.1678e-07
2.71878e-09
4.75547e-07
2.28624e-07
-3.30866e-07
1.62011e-06
3.57022e-07
-2.9553e-07
1.46621e-06
-2.65181e-07
1.4145e-06
-2.3658e-07
1.34898e-06
-2.09759e-07
1.28903e-06
-1.84591e-07
1.23284e-06
-1.60996e-07
1.18001e-06
-1.38937e-07
1.13035e-06
-1.1839e-07
1.08356e-06
-9.93389e-08
1.03939e-06
-8.17669e-08
9.97563e-07
-6.56546e-08
9.57849e-07
-5.09793e-08
9.20017e-07
-3.77167e-08
8.83841e-07
-2.58534e-08
8.49054e-07
-1.54194e-08
8.15165e-07
-6.55796e-09
7.80946e-07
3.6481e-10
7.43151e-07
4.69387e-09
6.9381e-07
5.6966e-09
6.15777e-07
3.35615e-09
4.77888e-07
2.3198e-07
-3.37055e-07
1.59092e-06
3.6624e-07
-3.02444e-07
1.4316e-06
-2.71895e-07
1.38395e-06
-2.43257e-07
1.32034e-06
-2.16265e-07
1.26203e-06
-1.90786e-07
1.20736e-06
-1.66761e-07
1.15599e-06
-1.44175e-07
1.10776e-06
-1.23029e-07
1.06241e-06
-1.03329e-07
1.01969e-06
-8.50816e-08
9.79315e-07
-6.82862e-08
9.41054e-07
-5.29368e-08
9.04667e-07
-3.90233e-08
8.69928e-07
-2.65425e-08
8.36574e-07
-1.55321e-08
8.04154e-07
-6.14764e-09
7.71561e-07
1.21223e-09
7.35791e-07
5.80673e-09
6.89215e-07
6.75493e-09
6.14829e-07
3.94215e-09
4.807e-07
2.35923e-07
-3.38811e-07
1.55323e-06
3.76504e-07
-3.08809e-07
1.4016e-06
-2.79312e-07
1.35446e-06
-2.5149e-07
1.29252e-06
-2.24748e-07
1.23529e-06
-1.9914e-07
1.18175e-06
-1.74749e-07
1.1316e-06
-1.51638e-07
1.08465e-06
-1.29858e-07
1.04063e-06
-1.09452e-07
9.99279e-07
-9.04498e-08
9.60313e-07
-7.28751e-08
9.23479e-07
-5.67397e-08
8.88532e-07
-4.20483e-08
8.55237e-07
-2.88086e-08
8.23334e-07
-1.70644e-08
7.9241e-07
-6.9749e-09
7.61471e-07
1.0421e-09
7.27774e-07
6.17341e-09
6.84084e-07
7.37779e-09
6.13625e-07
4.37949e-09
4.83699e-07
2.40302e-07
-3.26449e-07
1.48777e-06
3.9191e-07
-3.0118e-07
1.37633e-06
-2.7242e-07
1.3257e-06
-2.46772e-07
1.26687e-06
-2.22402e-07
1.21092e-06
-1.98895e-07
1.15824e-06
-1.76197e-07
1.1089e-06
-1.54346e-07
1.0628e-06
-1.33421e-07
1.01971e-06
-1.13514e-07
9.79371e-07
-9.47092e-08
9.41508e-07
-7.70825e-08
9.05852e-07
-6.06969e-08
8.72146e-07
-4.56025e-08
8.40142e-07
-3.18461e-08
8.09577e-07
-1.95013e-08
7.80065e-07
-8.74844e-09
7.50719e-07
-2.64557e-11
7.19052e-07
5.79348e-09
6.78264e-07
7.52065e-09
6.11898e-07
4.65921e-09
4.8656e-07
2.44961e-07
-3.44244e-07
1.43498e-06
3.9703e-07
-3.57719e-07
1.3898e-06
-3.39365e-07
1.30734e-06
-3.12262e-07
1.23977e-06
-2.82531e-07
1.18119e-06
-2.52578e-07
1.12829e-06
-2.23444e-07
1.07977e-06
-1.95572e-07
1.03493e-06
-1.69163e-07
9.933e-07
-1.44316e-07
9.54525e-07
-1.21089e-07
9.18281e-07
-9.9514e-08
8.84277e-07
-7.9608e-08
8.5224e-07
-6.13785e-08
8.21913e-07
-4.48309e-08
7.9303e-07
-3.00003e-08
7.65235e-07
-1.70359e-08
7.37754e-07
-6.36619e-09
7.08383e-07
1.11247e-09
6.70785e-07
4.16413e-09
6.08846e-07
2.58822e-09
4.88136e-07
2.47549e-07
-1.38698e-06
1.38452e-06
1.43744e-06
-1.28392e-06
1.28674e-06
-1.18931e-06
1.21273e-06
-1.09951e-06
1.14998e-06
-1.01384e-06
1.09552e-06
-9.31964e-07
1.04641e-06
-8.53641e-07
1.00144e-06
-7.78648e-07
9.59933e-07
-7.06755e-07
9.21408e-07
-6.37737e-07
8.85507e-07
-5.71376e-07
8.5192e-07
-5.07472e-07
8.20373e-07
-4.45844e-07
7.90612e-07
-3.86331e-07
7.62399e-07
-3.28783e-07
7.35482e-07
-2.73048e-07
7.095e-07
-2.18928e-07
6.83635e-07
-1.66162e-07
6.55616e-07
-1.14622e-07
6.19246e-07
-6.52813e-08
5.59505e-07
-2.28037e-08
4.45658e-07
2.24746e-07
-1.33458e-06
1.26782e-06
1.45128e-06
-1.22495e-06
1.17711e-06
-1.13255e-06
1.12033e-06
-1.04765e-06
1.06508e-06
-9.67487e-07
1.01536e-06
-8.90922e-07
9.69845e-07
-8.17415e-07
9.27936e-07
-7.46662e-07
8.8918e-07
-6.78451e-07
8.53198e-07
-6.12616e-07
8.19671e-07
-5.49014e-07
7.88319e-07
-4.87526e-07
7.58885e-07
-4.28049e-07
7.31135e-07
-3.70493e-07
7.04843e-07
-3.14776e-07
6.79766e-07
-2.60813e-07
6.55536e-07
-2.0849e-07
6.31312e-07
-1.57679e-07
6.04805e-07
-1.08437e-07
5.70003e-07
-6.18429e-08
5.12912e-07
-2.20831e-08
4.05899e-07
2.02663e-07
-1.31079e-06
1.16103e-06
1.41758e-06
-1.21223e-06
1.07855e-06
-1.12143e-06
1.02953e-06
-1.03599e-06
9.7964e-07
-9.54902e-07
9.34268e-07
-8.77547e-07
8.92489e-07
-8.03508e-07
8.53897e-07
-7.32481e-07
8.18153e-07
-6.6423e-07
7.84946e-07
-5.98561e-07
7.54002e-07
-5.35311e-07
7.25069e-07
-4.74343e-07
6.97917e-07
-4.15539e-07
6.72331e-07
-3.58799e-07
6.48103e-07
-3.04032e-07
6.24999e-07
-2.51145e-07
6.02649e-07
-2.0003e-07
5.80197e-07
-1.50592e-07
5.55366e-07
-1.02968e-07
5.2238e-07
-5.83244e-08
4.68268e-07
-2.0671e-08
3.68245e-07
1.81992e-07
-1.28743e-06
1.05726e-06
1.3912e-06
-1.19298e-06
9.84105e-07
-1.10348e-06
9.40027e-07
-1.01887e-06
8.95031e-07
-9.38401e-07
8.53804e-07
-8.61605e-07
8.15693e-07
-7.88113e-07
7.80405e-07
-7.17644e-07
7.47684e-07
-6.49973e-07
7.17276e-07
-5.84916e-07
6.88944e-07
-5.22318e-07
6.62471e-07
-4.62051e-07
6.3765e-07
-4.04005e-07
6.14286e-07
-3.48086e-07
5.92184e-07
-2.94208e-07
5.71121e-07
-2.42284e-07
5.50725e-07
-1.9222e-07
5.30134e-07
-1.43965e-07
5.07111e-07
-9.77444e-08
4.7616e-07
-5.48275e-08
4.25351e-07
-1.91509e-08
3.32569e-07
1.62841e-07
-1.26877e-06
9.5577e-07
1.37026e-06
-1.17639e-06
8.9173e-07
-1.08793e-06
8.51565e-07
-1.004e-06
8.111e-07
-9.24044e-07
7.73846e-07
-8.47688e-07
7.39336e-07
-7.74624e-07
7.07342e-07
-7.04596e-07
6.77655e-07
-6.37389e-07
6.50069e-07
-5.72829e-07
6.24384e-07
-5.10766e-07
6.00409e-07
-4.51079e-07
5.77963e-07
-3.93662e-07
5.56869e-07
-3.38427e-07
5.36949e-07
-2.85294e-07
5.17988e-07
-2.34184e-07
4.99615e-07
-1.85023e-07
4.80973e-07
-1.37808e-07
4.59895e-07
-9.286e-08
4.31212e-07
-5.15482e-08
3.84039e-07
-1.77322e-08
2.98753e-07
1.45108e-07
-1.25329e-06
8.56038e-07
1.35303e-06
-1.16207e-06
8.00509e-07
-1.0745e-06
7.63988e-07
-9.91211e-07
7.27814e-07
-9.11768e-07
6.94402e-07
-8.35857e-07
6.63426e-07
-7.63207e-07
6.34691e-07
-6.93581e-07
6.08029e-07
-6.2678e-07
5.83268e-07
-5.62635e-07
5.60239e-07
-5.01007e-07
5.38781e-07
-4.41779e-07
5.18735e-07
-3.84854e-07
4.99944e-07
-3.30151e-07
4.82246e-07
-2.77598e-07
4.65434e-07
-2.27128e-07
4.49145e-07
-1.78696e-07
4.32541e-07
-1.32351e-07
4.13551e-07
-8.85108e-08
3.87371e-07
-4.86319e-08
3.4416e-07
-1.64842e-08
2.66605e-07
1.28624e-07
-1.24175e-06
7.57623e-07
1.34017e-06
-1.15118e-06
7.09935e-07
-1.06426e-06
6.77074e-07
-9.81489e-07
6.45041e-07
-9.02474e-07
6.15387e-07
-8.26934e-07
5.87886e-07
-7.54618e-07
5.62375e-07
-6.85303e-07
5.38714e-07
-6.18798e-07
5.16763e-07
-5.54943e-07
4.96384e-07
-4.93604e-07
4.77442e-07
-4.34671e-07
4.59801e-07
-3.78054e-07
4.43327e-07
-3.23681e-07
4.27873e-07
-2.71492e-07
4.13245e-07
-2.21439e-07
3.99092e-07
-1.73508e-07
3.8461e-07
-1.27808e-07
3.67851e-07
-8.48478e-08
3.44411e-07
-4.6163e-08
3.05475e-07
-1.54317e-08
2.35874e-07
1.13193e-07
-1.23346e-06
6.60322e-07
1.33076e-06
-1.14335e-06
6.19825e-07
-1.057e-06
5.90723e-07
-9.74691e-07
5.62731e-07
-8.96075e-07
5.36772e-07
-8.20882e-07
5.12693e-07
-7.48869e-07
4.90362e-07
-6.7982e-07
4.69665e-07
-6.13549e-07
4.50492e-07
-5.49897e-07
4.32732e-07
-4.88733e-07
4.16278e-07
-4.29953e-07
4.01021e-07
-3.73475e-07
3.86849e-07
-3.19235e-07
3.73633e-07
-2.67189e-07
3.61199e-07
-2.17311e-07
3.49215e-07
-1.69627e-07
3.36925e-07
-1.24309e-07
3.22534e-07
-8.19571e-08
3.02059e-07
-4.41819e-08
2.677e-07
-1.45813e-08
2.06273e-07
9.86113e-08
-1.22865e-06
5.63974e-07
1.325e-06
-1.13892e-06
5.30092e-07
-1.05306e-06
5.04863e-07
-9.71174e-07
4.80845e-07
-8.92933e-07
4.58531e-07
-8.18066e-07
4.37826e-07
-7.4633e-07
4.18626e-07
-6.77509e-07
4.00844e-07
-6.11415e-07
3.84397e-07
-5.47886e-07
3.69203e-07
-4.86791e-07
3.55183e-07
-4.28024e-07
3.42255e-07
-3.71508e-07
3.30333e-07
-3.17188e-07
3.19314e-07
-2.65036e-07
3.09046e-07
-2.15052e-07
2.99231e-07
-1.67306e-07
2.8918e-07
-1.22044e-07
2.77271e-07
-7.99584e-08
2.59974e-07
-4.27432e-08
2.30485e-07
-1.39431e-08
1.77473e-07
8.46682e-08
-1.22723e-06
4.68465e-07
1.32274e-06
-1.13786e-06
4.40721e-07
-1.05247e-06
4.19472e-07
-9.71002e-07
3.99379e-07
-8.93142e-07
3.80671e-07
-8.18611e-07
3.63295e-07
-7.4716e-07
3.47175e-07
-6.78565e-07
3.3225e-07
-6.12631e-07
3.18463e-07
-5.49188e-07
3.0576e-07
-4.88093e-07
2.94088e-07
-4.29234e-07
2.83396e-07
-3.72529e-07
2.73628e-07
-3.17928e-07
2.64712e-07
-2.65412e-07
2.5653e-07
-2.15012e-07
2.48831e-07
-1.66847e-07
2.41015e-07
-1.21241e-07
2.31665e-07
-7.89993e-08
2.17732e-07
-4.1916e-08
1.93401e-07
-1.35319e-08
1.49089e-07
7.11363e-08
-1.22895e-06
3.73728e-07
1.32369e-06
-1.13998e-06
3.51753e-07
-1.05508e-06
3.34573e-07
-9.74073e-07
3.18372e-07
-8.9664e-07
3.03238e-07
-8.22496e-07
2.89151e-07
-7.51383e-07
2.76062e-07
-6.83067e-07
2.63934e-07
-6.17337e-07
2.52732e-07
-5.54004e-07
2.42427e-07
-4.9291e-07
2.32994e-07
-4.33922e-07
2.24408e-07
-3.76941e-07
2.16647e-07
-3.21904e-07
2.09675e-07
-2.68795e-07
2.03421e-07
-2.17663e-07
1.97699e-07
-1.68675e-07
1.92027e-07
-1.22247e-07
1.85237e-07
-7.93148e-08
1.748e-07
-4.182e-08
1.55907e-07
-1.33796e-08
1.20649e-07
5.77566e-08
-1.23338e-06
2.79756e-07
1.32735e-06
-1.1449e-06
2.63274e-07
-1.06055e-06
2.50225e-07
-9.80074e-07
2.37893e-07
-9.03145e-07
2.26309e-07
-8.29474e-07
2.1548e-07
-7.58795e-07
2.05383e-07
-6.9086e-07
1.95999e-07
-6.2544e-07
1.87312e-07
-5.62326e-07
1.79313e-07
-5.01328e-07
1.71996e-07
-4.42283e-07
1.65363e-07
-3.85054e-07
1.59418e-07
-3.29546e-07
1.54167e-07
-2.75714e-07
1.49589e-07
-2.23598e-07
1.45584e-07
-1.73396e-07
1.41825e-07
-1.25606e-07
1.37447e-07
-8.1318e-08
1.30512e-07
-4.26906e-08
1.17279e-07
-1.35568e-08
9.15147e-08
4.41998e-08
-1.23952e-06
1.86448e-07
1.33283e-06
-1.15156e-06
1.75315e-07
-1.06776e-06
1.66428e-07
-9.8781e-07
1.57938e-07
-9.11383e-07
1.49882e-07
-8.38196e-07
1.42293e-07
-7.67981e-07
1.35168e-07
-7.00485e-07
1.28503e-07
-6.3547e-07
1.22297e-07
-5.72707e-07
1.1655e-07
-5.11981e-07
1.11271e-07
-4.5309e-07
1.06472e-07
-3.95848e-07
1.02177e-07
-3.40098e-07
9.84161e-08
-2.85727e-07
9.52178e-08
-2.32713e-07
9.25702e-08
-1.81214e-07
9.03253e-08
-1.31748e-07
8.79813e-08
-8.55278e-08
8.42917e-08
-4.49649e-08
7.67164e-08
-1.42751e-08
6.08249e-08
2.99248e-08
-1.23658e-06
9.25741e-08
1.33045e-06
-1.14836e-06
8.70935e-08
-1.06442e-06
8.24915e-08
-9.84384e-07
7.79016e-08
-9.07952e-07
7.3451e-08
-8.34864e-07
6.92055e-08
-7.64879e-07
6.51826e-08
-6.97766e-07
6.13902e-08
-6.33302e-07
5.78326e-08
-5.71265e-07
5.45138e-08
-5.11435e-07
5.14402e-08
-4.53586e-07
4.86224e-08
-3.97488e-07
4.60785e-08
-3.42908e-07
4.38366e-08
-2.89626e-07
4.1936e-08
-2.37474e-07
4.04178e-08
-1.86434e-07
3.92861e-08
-1.36858e-07
3.8405e-08
-8.98559e-08
3.72895e-08
-4.79002e-08
3.47607e-08
-1.55122e-08
2.84369e-08
1.44126e-08
-1.08449e-06
1.17594e-06
-9.98412e-07
-9.16832e-07
-8.39754e-07
-7.67049e-07
-6.98521e-07
-6.33957e-07
-5.73131e-07
-5.15817e-07
-4.61779e-07
-4.10776e-07
-3.62557e-07
-3.1685e-07
-2.73354e-07
-2.3173e-07
-1.91595e-07
-1.52562e-07
-1.14379e-07
-7.72777e-08
-4.26674e-08
-1.43386e-08
1.4199e-06
1.17144e-07
1.02213e-08
-1.54727e-06
1.30203e-06
1.08852e-07
9.02403e-09
1.19167e-06
1.02297e-07
8.05581e-09
1.08817e-06
9.62744e-08
7.23302e-09
9.90889e-07
9.07467e-08
6.53118e-09
8.99299e-07
8.56599e-08
5.93013e-09
8.12929e-07
8.0957e-08
5.41291e-09
7.31371e-07
7.65917e-08
4.9657e-09
6.5427e-07
7.25247e-08
4.57713e-09
5.81309e-07
6.87225e-08
4.23779e-09
5.12213e-07
6.51565e-08
3.93989e-09
4.46734e-07
6.1802e-08
3.6769e-09
3.84653e-07
5.86374e-08
3.44338e-09
3.25777e-07
5.56418e-08
3.23461e-09
2.69942e-07
5.27887e-08
3.04616e-09
2.17038e-07
5.00307e-08
2.87288e-09
1.67071e-07
4.72607e-08
2.70661e-09
1.20305e-07
4.42347e-08
2.53164e-09
7.75458e-08
4.04418e-08
2.31709e-09
4.06004e-08
3.49383e-08
2.00702e-09
1.28784e-08
2.62104e-08
1.51165e-09
1.21727e-08
7.05712e-10
1.41693e-06
2.44171e-07
-1.54396e-06
1.29949e-06
2.26289e-07
1.18953e-06
2.12256e-07
1.08638e-06
1.99426e-07
9.89417e-07
1.87712e-07
8.98098e-07
1.76979e-07
8.11963e-07
1.67092e-07
7.30609e-07
1.57946e-07
6.53682e-07
1.49452e-07
5.80872e-07
1.41533e-07
5.11904e-07
1.34124e-07
4.46534e-07
1.27172e-07
3.84546e-07
1.20626e-07
3.25747e-07
1.14441e-07
2.69975e-07
1.0856e-07
2.17121e-07
1.02884e-07
1.67189e-07
9.7193e-08
1.20439e-07
9.09847e-08
7.76722e-08
8.32087e-08
4.06916e-08
7.19189e-08
1.29161e-08
5.39858e-08
2.50888e-08
1.4119e-06
3.70138e-07
-1.53787e-06
1.2955e-06
3.42689e-07
1.18636e-06
3.21401e-07
1.08389e-06
3.0189e-07
9.8751e-07
2.84097e-07
8.96683e-07
2.67806e-07
8.10964e-07
2.52811e-07
7.2996e-07
2.3895e-07
6.53327e-07
2.26085e-07
5.80762e-07
2.14098e-07
5.11994e-07
2.02892e-07
4.46785e-07
1.9238e-07
3.84923e-07
1.82489e-07
3.26217e-07
1.73147e-07
2.70509e-07
1.64268e-07
2.1769e-07
1.55704e-07
1.67759e-07
1.47124e-07
1.20971e-07
1.37773e-07
7.81167e-08
1.26063e-07
4.09944e-08
1.09041e-07
1.30439e-08
8.19363e-08
3.81327e-08
1.40456e-06
4.94558e-07
-1.52898e-06
1.2897e-06
4.57549e-07
1.18178e-06
4.29325e-07
1.08035e-06
4.03322e-07
9.84831e-07
3.79612e-07
8.94737e-07
3.57899e-07
8.09635e-07
3.37913e-07
7.29149e-07
3.19436e-07
6.52948e-07
3.02286e-07
5.80738e-07
2.86308e-07
5.1226e-07
2.7137e-07
4.47281e-07
2.57359e-07
3.85595e-07
2.44175e-07
3.27018e-07
2.31723e-07
2.71395e-07
2.19892e-07
2.18616e-07
2.08483e-07
1.68677e-07
1.97062e-07
1.21821e-07
1.84628e-07
7.88222e-08
1.69062e-07
4.14703e-08
1.46393e-07
1.32407e-08
1.10166e-07
5.13734e-08
1.39636e-06
6.17147e-07
-1.51895e-06
1.28343e-06
5.70478e-07
1.17702e-06
5.35729e-07
1.07688e-06
5.03468e-07
9.82441e-07
4.74048e-07
8.9325e-07
4.47091e-07
8.089e-07
4.22262e-07
7.29037e-07
3.99299e-07
6.53344e-07
3.77978e-07
5.81543e-07
3.58109e-07
5.13385e-07
3.39528e-07
4.48648e-07
3.22096e-07
3.87132e-07
3.0569e-07
3.28661e-07
2.90194e-07
2.73083e-07
2.75469e-07
2.2029e-07
2.61277e-07
1.70271e-07
2.47081e-07
1.2325e-07
2.31649e-07
7.99788e-08
2.12334e-07
4.22367e-08
1.84135e-07
1.35538e-08
1.38849e-07
6.49272e-08
1.38927e-06
7.37789e-07
-1.50991e-06
1.27848e-06
6.81261e-07
1.17372e-06
6.40488e-07
1.07496e-06
6.02237e-07
9.81659e-07
5.67345e-07
8.93405e-07
5.35344e-07
8.09821e-07
5.05846e-07
7.30573e-07
4.78547e-07
6.55364e-07
4.53187e-07
5.83931e-07
4.29542e-07
5.16038e-07
4.07422e-07
4.51472e-07
3.86662e-07
3.90044e-07
3.67118e-07
3.31585e-07
3.48653e-07
2.75947e-07
3.31107e-07
2.23022e-07
3.14201e-07
1.7279e-07
2.97314e-07
1.25452e-07
2.78987e-07
8.17256e-08
2.56061e-07
4.33767e-08
2.22484e-07
1.40141e-08
1.68211e-07
7.89413e-08
1.38438e-06
8.56508e-07
-1.5031e-06
1.27584e-06
7.89803e-07
1.17275e-06
7.43576e-07
1.07537e-06
6.99617e-07
9.83205e-07
6.59511e-07
8.95862e-07
6.22687e-07
8.13001e-07
5.88708e-07
7.34311e-07
5.57237e-07
6.59516e-07
5.27982e-07
5.88366e-07
5.00692e-07
5.20639e-07
4.75149e-07
4.56136e-07
4.51166e-07
3.94674e-07
4.28579e-07
3.36094e-07
4.07233e-07
2.80254e-07
3.86948e-07
2.27043e-07
3.67412e-07
1.76429e-07
3.47927e-07
1.28584e-07
3.26832e-07
8.41798e-08
3.00464e-07
4.49652e-08
2.61699e-07
1.46523e-08
1.98524e-07
9.35936e-08
1.38268e-06
9.7344e-07
-1.49961e-06
1.27636e-06
8.96128e-07
1.17487e-06
8.45062e-07
1.0788e-06
7.95683e-07
9.87689e-07
7.50627e-07
9.0117e-07
7.09205e-07
8.18936e-07
6.70942e-07
7.407e-07
6.35473e-07
6.66203e-07
6.02479e-07
5.95213e-07
5.71682e-07
5.27518e-07
5.42843e-07
4.62932e-07
5.15752e-07
4.01284e-07
4.90227e-07
3.4242e-07
4.66097e-07
2.86204e-07
4.43164e-07
2.32524e-07
4.21092e-07
1.81333e-07
3.99119e-07
1.32764e-07
3.75401e-07
8.74352e-08
3.45793e-07
4.70658e-08
3.02068e-07
1.54965e-08
2.30094e-07
1.0909e-07
1.38487e-06
1.08881e-06
-1.50024e-06
1.28062e-06
1.00038e-06
1.18057e-06
9.45106e-07
1.08568e-06
8.90576e-07
9.95477e-07
8.40828e-07
9.0965e-07
7.95032e-07
8.27911e-07
7.52681e-07
7.49992e-07
7.13392e-07
6.75652e-07
6.76819e-07
6.04672e-07
6.42663e-07
5.36854e-07
6.1066e-07
4.72022e-07
5.80585e-07
4.10013e-07
5.52236e-07
3.50684e-07
5.25426e-07
2.93903e-07
4.99945e-07
2.39558e-07
4.75438e-07
1.87581e-07
4.51095e-07
1.38063e-07
4.24918e-07
9.15523e-08
3.92304e-07
4.97255e-08
3.43895e-07
1.65706e-08
2.63249e-07
1.25661e-07
1.39138e-06
1.20288e-06
-1.50546e-06
1.28891e-06
1.10285e-06
1.19007e-06
1.04394e-06
1.09615e-06
9.84497e-07
1.00669e-06
9.3029e-07
9.21391e-07
8.80328e-07
8.39993e-07
8.34079e-07
7.6224e-07
7.91145e-07
6.87903e-07
7.51156e-07
6.16775e-07
7.13791e-07
5.4867e-07
6.78766e-07
4.83419e-07
6.45835e-07
4.20873e-07
6.14782e-07
3.60894e-07
5.85405e-07
3.03357e-07
5.57482e-07
2.48147e-07
5.30648e-07
1.95179e-07
5.04063e-07
1.44493e-07
4.75604e-07
9.6552e-08
4.40246e-07
5.2971e-08
3.87476e-07
1.78936e-08
2.98326e-07
1.43554e-07
1.40232e-06
1.31597e-06
-1.51541e-06
1.30107e-06
1.2041e-06
1.20314e-06
1.14188e-06
1.10996e-06
1.07768e-06
1.02105e-06
1.0192e-06
9.36133e-07
9.65246e-07
8.54934e-07
9.15278e-07
7.7721e-07
8.68869e-07
7.02738e-07
8.25628e-07
6.3132e-07
7.85208e-07
5.62779e-07
7.47307e-07
4.96955e-07
7.11658e-07
4.33708e-07
6.78029e-07
3.72909e-07
6.46205e-07
3.14438e-07
6.15953e-07
2.58181e-07
5.86905e-07
2.04036e-07
5.58208e-07
1.51987e-07
5.27653e-07
1.02399e-07
4.89834e-07
5.67968e-08
4.33078e-07
1.9475e-08
3.35648e-07
1.63029e-07
1.41862e-06
1.42837e-06
-1.53102e-06
1.31737e-06
1.30535e-06
1.21991e-06
1.23934e-06
1.12716e-06
1.17044e-06
1.03859e-06
1.10777e-06
9.53865e-07
1.04997e-06
8.72705e-07
9.96438e-07
7.94853e-07
9.46721e-07
7.20091e-07
9.0039e-07
6.48226e-07
8.57073e-07
5.79088e-07
8.16445e-07
5.12526e-07
7.7822e-07
4.48406e-07
7.42149e-07
3.86609e-07
7.08002e-07
3.27024e-07
6.75538e-07
2.69538e-07
6.44391e-07
2.14034e-07
6.13712e-07
1.60444e-07
5.81243e-07
1.0902e-07
5.41258e-07
6.11709e-08
4.80927e-07
2.13137e-08
3.75505e-07
1.84343e-07
1.44139e-06
1.53972e-06
-1.55274e-06
1.33783e-06
1.40891e-06
1.24051e-06
1.33667e-06
1.14783e-06
1.26311e-06
1.05928e-06
1.19631e-06
9.74474e-07
1.13477e-06
8.93093e-07
1.07782e-06
8.14883e-07
1.02493e-06
7.39625e-07
9.75649e-07
6.67126e-07
9.29572e-07
5.97219e-07
8.86352e-07
5.29754e-07
8.45685e-07
4.64603e-07
8.07301e-07
4.01649e-07
7.70955e-07
3.40788e-07
7.36399e-07
2.81912e-07
7.03267e-07
2.24893e-07
6.7073e-07
1.69616e-07
6.3652e-07
1.16221e-07
5.94653e-07
6.59725e-08
5.31176e-07
2.33753e-08
4.18102e-07
2.07718e-07
1.46798e-06
1.65497e-06
-1.58323e-06
1.35194e-06
1.52495e-06
1.25284e-06
1.43577e-06
1.16082e-06
1.35513e-06
1.07361e-06
1.28353e-06
9.90105e-07
1.21828e-06
9.09748e-07
1.15818e-06
8.3223e-07
1.10245e-06
7.57332e-07
1.05055e-06
6.8488e-07
1.00202e-06
6.14728e-07
9.56504e-07
5.46749e-07
9.13664e-07
4.80834e-07
8.73216e-07
4.16889e-07
8.349e-07
3.5483e-07
7.98458e-07
2.94567e-07
7.63531e-07
2.3598e-07
7.29317e-07
1.78928e-07
6.93572e-07
1.23461e-07
6.5012e-07
7.07243e-08
5.83912e-07
2.53593e-08
4.63467e-07
2.33078e-07
1.53394e-06
1.68784e-06
-1.56681e-06
1.42205e-06
1.63685e-06
1.32047e-06
1.53734e-06
1.22358e-06
1.45202e-06
1.13084e-06
1.37627e-06
1.0419e-06
1.30721e-06
9.56507e-07
1.24357e-06
8.74408e-07
1.18455e-06
7.95384e-07
1.12957e-06
7.19216e-07
1.07819e-06
6.45696e-07
1.03002e-06
5.74632e-07
9.84729e-07
5.05846e-07
9.42002e-07
4.39181e-07
9.01565e-07
3.74494e-07
8.63145e-07
3.11636e-07
8.26389e-07
2.50409e-07
7.90544e-07
1.90543e-07
7.53438e-07
1.31889e-07
7.08773e-07
7.54538e-08
6.40348e-07
2.64968e-08
5.12424e-07
2.59574e-07
1.37986e-07
1.71719e-06
-1.67334e-07
1.72094e-07
1.60274e-06
1.77288e-07
1.53215e-06
1.72695e-07
1.45661e-06
1.63463e-07
1.3855e-06
1.51947e-07
1.31873e-06
1.39306e-07
1.25621e-06
1.26133e-07
1.19772e-06
1.12765e-07
1.14294e-06
9.94146e-08
1.09154e-06
8.6228e-08
1.04321e-06
7.33092e-08
9.97648e-07
6.07354e-08
9.54576e-07
4.85659e-08
9.13734e-07
3.68562e-08
8.74855e-07
2.56944e-08
8.37551e-07
1.52939e-08
8.00944e-07
6.17753e-09
7.62555e-07
-6.11575e-10
7.15562e-07
-3.61246e-09
6.43349e-07
-2.30716e-09
5.11119e-07
2.57267e-07
1.39444e-07
1.75031e-06
-1.72568e-07
1.39689e-07
1.60249e-06
1.3415e-07
1.53769e-06
1.28367e-07
1.46239e-06
1.21436e-07
1.39243e-06
1.13402e-07
1.32676e-06
1.04485e-07
1.26513e-06
9.49088e-08
1.2073e-06
8.48855e-08
1.15296e-06
7.46027e-08
1.10182e-06
6.42221e-08
1.05359e-06
5.38816e-08
1.00799e-06
4.36976e-08
9.6476e-07
3.37696e-08
9.23662e-07
2.41921e-08
8.84432e-07
1.50863e-08
8.46656e-07
6.68356e-09
8.09347e-07
-5.15449e-10
7.69754e-07
-5.54948e-09
7.20596e-07
-7.07203e-09
6.44871e-07
-4.36332e-09
5.0841e-07
2.52904e-07
1.5574e-07
1.76198e-06
-1.67409e-07
1.48526e-07
1.60971e-06
1.40098e-07
1.54612e-06
1.31046e-07
1.47144e-06
1.2122e-07
1.40226e-06
1.1082e-07
1.33717e-06
1.00065e-07
1.27588e-06
8.91438e-08
1.21822e-06
7.8212e-08
1.16389e-06
6.7401e-08
1.11264e-06
5.682e-08
1.06417e-06
4.6559e-08
1.01825e-06
3.66916e-08
9.74627e-07
2.728e-08
9.33074e-07
1.83869e-08
8.93326e-07
1.01102e-08
8.54933e-07
2.66519e-09
8.16792e-07
-3.4659e-09
7.75885e-07
-7.38037e-09
7.24511e-07
-7.88476e-09
6.45376e-07
-4.50209e-09
5.05028e-07
2.48402e-07
1.60121e-07
1.76816e-06
-1.663e-07
1.47463e-07
1.62237e-06
1.36675e-07
1.5569e-06
1.25762e-07
1.48236e-06
1.14746e-07
1.41328e-06
1.03644e-07
1.34827e-06
9.25361e-08
1.28699e-06
8.15238e-08
1.22923e-06
7.07064e-08
1.17471e-06
6.01747e-08
1.12317e-06
5.00077e-08
1.07434e-06
4.02718e-08
1.02799e-06
3.10219e-08
9.83877e-07
2.23055e-08
9.4179e-07
1.41751e-08
9.01456e-07
6.72359e-09
8.62385e-07
1.62353e-10
8.23353e-07
-5.045e-09
7.81092e-07
-8.06972e-09
7.27535e-07
-7.8936e-09
6.452e-07
-4.27739e-09
5.01411e-07
2.44125e-07
1.60339e-07
1.77356e-06
-1.65738e-07
1.45712e-07
1.63699e-06
1.33726e-07
1.56889e-06
1.21751e-07
1.49433e-06
1.09974e-07
1.42505e-06
9.83969e-08
1.35985e-06
8.70572e-08
1.29833e-06
7.60167e-08
1.24027e-06
6.53386e-08
1.18539e-06
5.50828e-08
1.13342e-06
4.53019e-08
1.08412e-06
3.60404e-08
1.03725e-06
2.73349e-08
9.92582e-07
1.92182e-08
9.49907e-07
1.17316e-08
9.08943e-07
4.95888e-09
8.69157e-07
-9.00053e-10
8.29212e-07
-5.41554e-09
7.85608e-07
-7.84886e-09
7.29969e-07
-7.35323e-09
6.44704e-07
-3.86279e-09
4.97921e-07
2.40262e-07
1.57951e-07
1.77973e-06
-1.64119e-07
1.42679e-07
1.65226e-06
1.30052e-07
1.58152e-06
1.17581e-07
1.5068e-06
1.05491e-07
1.43714e-06
9.37837e-08
1.37155e-06
8.24767e-08
1.30964e-06
7.16056e-08
1.25114e-06
6.12087e-08
1.19579e-06
5.13232e-08
1.14331e-06
4.19816e-08
1.09346e-06
3.3211e-08
1.04602e-06
2.50334e-08
1.00076e-06
1.74693e-08
9.57471e-07
1.05499e-08
9.15862e-07
4.34912e-09
8.75358e-07
-9.50721e-10
8.34512e-07
-4.9619e-09
7.89619e-07
-7.04029e-09
7.32047e-07
-6.49145e-09
6.44155e-07
-3.35633e-09
4.94786e-07
2.36905e-07
1.53111e-07
1.78696e-06
-1.60342e-07
1.37888e-07
1.66749e-06
1.25096e-07
1.59431e-06
1.12598e-07
1.5193e-06
1.00594e-07
1.44915e-06
8.90868e-08
1.38306e-06
7.80799e-08
1.32065e-06
6.75912e-08
1.26163e-06
5.76409e-08
1.20574e-06
4.82488e-08
1.1527e-06
3.9432e-08
1.10228e-06
3.12044e-08
1.05424e-06
2.35761e-08
1.00839e-06
1.65577e-08
9.6449e-07
1.01716e-08
9.22248e-07
4.48079e-09
8.81049e-07
-3.52868e-10
8.39345e-07
-3.98897e-09
7.93255e-07
-5.87737e-09
7.33936e-07
-5.45323e-09
6.43731e-07
-2.81086e-09
4.92144e-07
2.34095e-07
1.45341e-07
1.79503e-06
-1.53409e-07
1.30672e-07
1.68216e-06
1.18171e-07
1.60681e-06
1.06071e-07
1.5314e-06
9.45291e-08
1.46069e-06
8.35447e-08
1.39404e-06
7.3111e-08
1.33108e-06
6.32322e-08
1.27151e-06
5.39154e-08
1.21505e-06
4.51672e-08
1.16145e-06
3.69935e-08
1.11045e-06
2.93975e-08
1.06184e-06
2.23808e-08
1.01541e-06
1.59465e-08
9.70924e-07
1.01091e-08
9.28085e-07
4.92089e-09
8.86237e-07
5.20955e-10
8.43745e-07
-2.80002e-09
7.96576e-07
-4.58127e-09
7.35717e-07
-4.36799e-09
6.43518e-07
-2.27021e-09
4.90046e-07
2.31824e-07
1.33847e-07
1.80347e-06
-1.42291e-07
1.20198e-07
1.69581e-06
1.08444e-07
1.61856e-06
9.71613e-08
1.54268e-06
8.64612e-08
1.47139e-06
7.63348e-08
1.40417e-06
6.67676e-08
1.34065e-06
5.77537e-08
1.28052e-06
4.92897e-08
1.22352e-06
4.13732e-08
1.16937e-06
3.40013e-08
1.11782e-06
2.71702e-08
1.06867e-06
2.08754e-08
1.0217e-06
1.51143e-08
9.76685e-07
9.89547e-09
9.33304e-07
5.26054e-09
8.90872e-07
1.32507e-09
8.47681e-07
-1.6697e-09