/*--------------------------------*- C++ -*----------------------------------*\
| =========                 |                                                 |
| \\      /  F ield         | foam-extend: Open Source CFD                    |
|  \\    /   O peration     | Version:     3.1                                |
|   \\  /    A nd           | Web:         http://www.extend-project.de       |
|    \\/     M anipulation  |                                                 |
\*---------------------------------------------------------------------------*/
FoamFile
{
    version     2.0;
    format      ascii;
    class       volVectorField;
    location    "0.005";
    object      U;
}
// * * * * * * * * * * * * * * * * * * * * * * * * * * * * * * * * * * * * * //

dimensions      [0 1 -1 0 0 0 0];

internalField   nonuniform List<vector> 
20940
(
(0.00844718 0.000105993 1.55162e-19)
(0.00856688 0.000143918 8.64602e-20)
(0.0087409 0.000118932 -1.91762e-19)
(0.00892315 0.000104344 0)
(0.00911451 8.73423e-05 0)
(0.00931536 6.88187e-05 -1.28989e-19)
(0.00952531 4.91126e-05 1.41457e-19)
(0.00974404 2.82835e-05 1.54512e-19)
(0.00997114 6.44476e-06 -2.52442e-19)
(0.0102061 -1.62808e-05 9.1318e-20)
(0.0104484 -3.9768e-05 9.85408e-20)
(0.0106974 -6.38846e-05 1.06015e-19)
(0.0109521 -8.84889e-05 1.13688e-19)
(0.0112111 -0.000113417 3.56839e-24)
(0.011471 -0.000138446 -6.43775e-20)
(0.0117216 -0.000163176 0)
(0.0119341 -0.000186751 -7.13316e-20)
(0.0120322 -0.000207213 -1.2034e-24)
(0.0118379 -0.000220076 1.55028e-19)
(0.0109836 -0.000216301 -8.01677e-20)
(0.0088077 -0.000182194 0)
(0.00428359 -9.84548e-05 0)
(0.00841002 -0.000172326 1.54672e-19)
(0.00853317 -5.03629e-05 -1.7232e-19)
(0.00870264 -0.000113058 9.57816e-20)
(0.00888194 -0.000142646 2.11418e-19)
(0.00907016 -0.000177443 0)
(0.00926785 -0.000214755 -2.57116e-19)
(0.00947465 -0.00025377 5.63501e-19)
(0.00969024 -0.000294476 -7.7132e-20)
(0.00991422 -0.000336703 8.39823e-20)
(0.0101461 -0.00038026 0)
(0.0103854 -0.000424956 -4.91255e-19)
(0.0106313 -0.000470589 1.05571e-19)
(0.0108831 -0.000516949 1.13343e-19)
(0.0111394 -0.000563785 -2.41329e-19)
(0.0113966 -0.000610706 -6.40822e-20)
(0.0116448 -0.00065685 0)
(0.0118553 -0.000700039 1.41797e-19)
(0.0119524 -0.000734814 1.48349e-19)
(0.0117592 -0.000748088 -1.54216e-19)
(0.0109103 -0.000712629 -1.59485e-19)
(0.00874797 -0.000585839 1.64056e-19)
(0.00425231 -0.000307784 0)
(0.00834666 -0.000441152 -3.07757e-19)
(0.00848112 -0.0002371 6.85332e-19)
(0.00864167 -0.000336858 0)
(0.00881594 -0.000381143 2.0981e-19)
(0.0089988 -0.000433422 4.65224e-19)
(0.00919108 -0.000489211 -5.11815e-19)
(0.00939251 -0.000547238 -2.8108e-19)
(0.00960277 -0.00060754 -3.06833e-19)
(0.00982146 -0.000669893 3.34078e-19)
(0.0100481 -0.000734041 3.61979e-19)
(0.0102823 -0.000799724 1.9602e-19)
(0.0105232 -0.000866672 0)
(0.0107702 -0.000934595 5.64106e-19)
(0.0110217 -0.00100314 -4.80964e-19)
(0.0112744 -0.00107172 -5.10069e-19)
(0.0115185 -0.00113899 6.73418e-19)
(0.0117259 -0.00120142 -1.41665e-19)
(0.0118221 -0.00125008 -2.95829e-19)
(0.0116325 -0.00126345 -1.53976e-19)
(0.0107961 -0.00119651 3.18144e-19)
(0.00866017 -0.000978913 0)
(0.00421031 -0.000512321 0)
(0.00825227 -0.000695778 0)
(0.00840371 -0.000412436 -3.41314e-19)
(0.0085523 -0.000548704 6.19747e-22)
(0.00872015 -0.000607272 -8.3898e-19)
(0.00889606 -0.000676632 -1.42513e-22)
(0.0090813 -0.000750453 5.08877e-19)
(0.00927571 -0.00082705 -7.99094e-22)
(0.00947895 -0.000906521 9.14997e-19)
(0.00969068 -0.000988597 6.64788e-19)
(0.00991045 -0.00107296 -7.22016e-19)
(0.0101378 -0.00115929 0)
(0.010372 -0.00124724 0)
(0.0106124 -0.00133645 4.49174e-19)
(0.0108576 -0.00142645 -4.7891e-19)
(0.0111044 -0.00151647 -2.53884e-19)
(0.0113432 -0.00160468 4.02427e-19)
(0.0115467 -0.00168629 0)
(0.0116425 -0.00174907 -5.89749e-19)
(0.0114594 -0.00176336 4.59804e-19)
(0.010642 -0.0016669 1.58464e-19)
(0.00854429 -0.0013621 3.26526e-19)
(0.00415658 -0.000712467 -2.69102e-19)
(0.00813198 -0.000932873 -6.06885e-19)
(0.00830483 -0.000573448 0)
(0.00843867 -0.000745071 1.12787e-18)
(0.00859863 -0.000817222 -8.32415e-19)
(0.00876593 -0.000903038 4.58916e-19)
(0.00894238 -0.000994234 -5.05543e-19)
(0.00912798 -0.00108877 -1.44241e-21)
(0.0093224 -0.0011868 -3.03651e-19)
(0.00952533 -0.00128804 0)
(0.00973637 -0.00139209 -8.74386e-22)
(0.00995506 -0.00149859 -3.88008e-19)
(0.0101808 -0.00160712 8.33935e-19)
(0.010413 -0.00171724 0)
(0.0106502 -0.00182837 -2.38608e-19)
(0.0108893 -0.00193958 2.5262e-19)
(0.0111215 -0.00204861 5.34461e-19)
(0.0113204 -0.00214951 5.61866e-19)
(0.0114159 -0.00222702 -5.87529e-19)
(0.0112417 -0.00224384 0)
(0.0104495 -0.00212105 4.74343e-19)
(0.00840104 -0.00173409 -6.51292e-19)
(0.00409108 -0.000907808 -1.3426e-19)
(0.00798861 -0.00114863 1.20261e-18)
(0.0081858 -0.000716936 0)
(0.00830246 -0.000922387 0)
(0.00845318 -0.0010072 8.25607e-19)
(0.00861029 -0.00110863 -2.27789e-18)
(0.0087763 -0.00121634 0)
(0.00895139 -0.00132797 -5.5126e-19)
(0.00913524 -0.00144378 -6.01302e-19)
(0.00932759 -0.00156344 0)
(0.0095281 -0.00168651 -3.56441e-19)
(0.00973638 -0.00181258 -3.85331e-19)
(0.0099519 -0.00194115 1.24262e-18)
(0.010174 -0.00207172 -8.88104e-19)
(0.0104015 -0.00220363 -7.10509e-19)
(0.0106315 -0.00233577 2.51364e-19)
(0.0108556 -0.00246554 8.31172e-23)
(0.011049 -0.00258599 -8.39149e-19)
(0.0111445 -0.00267916 5.85058e-19)
(0.0109815 -0.00270068 0)
(0.0102205 -0.00255574 9.45572e-19)
(0.00823201 -0.00209299 -6.49474e-19)
(0.00401486 -0.00109772 -4.0274e-19)
(0.00782601 -0.00133986 -5.96932e-19)
(0.00804914 -0.000840089 -1.17503e-21)
(0.00814658 -0.00107753 1.47667e-18)
(0.00828681 -0.00117386 -8.17545e-19)
(0.00843223 -0.00128986 2.40004e-21)
(0.00858624 -0.00141297 0)
(0.00874917 -0.00154066 0)
(0.00892075 -0.00167325 1.47047e-21)
(0.00910076 -0.0018104 0)
(0.00928897 -0.00195165 0)
(0.00948502 -0.00209652 0)
(0.00968848 -0.00224448 -4.11702e-19)
(0.00989876 -0.00239495 0)
(0.0101148 -0.00254718 1.0421e-21)
(0.010334 -0.00269996 1.00017e-18)
(0.0105486 -0.00285039 1.91404e-22)
(0.0107354 -0.00299074 -1.39086e-18)
(0.010831 -0.00310073 2.90847e-19)
(0.0106812 -0.00312966 0)
(0.00995704 -0.00296771 -9.42833e-19)
(0.00803897 -0.00243687 1.29514e-18)
(0.00392904 -0.00128167 -5.36926e-19)
(0.00764844 -0.00150404 -1.17907e-18)
(0.00789792 -0.000940619 -6.58707e-19)
(0.00797459 -0.00120794 -7.29539e-19)
(0.00810324 -0.00131441 0)
(0.00823564 -0.00144368 8.95023e-19)
(0.00837618 -0.00158086 0)
(0.0085254 -0.00172331 0)
(0.00868305 -0.00187147 5.91724e-19)
(0.00884902 -0.00202498 0)
(0.00902314 -0.00218336 -6.98844e-19)
(0.00920515 -0.0023461 0)
(0.00939471 -0.00251263 0)
(0.00959131 -0.00268231 8.74701e-19)
(0.00979406 -0.00285432 1.34537e-22)
(0.0100006 -0.00302736 0)
(0.0102041 -0.00319833 0)
(0.0103831 -0.00335893 0)
(0.0104783 -0.00348707 -5.79149e-19)
(0.0103434 -0.00352658 0)
(0.00966124 -0.00335365 -6.25839e-19)
(0.00782353 -0.00276384 9.67845e-19)
(0.00383462 -0.00145916 -5.36948e-19)
(0.00746028 -0.00163945 -1.16598e-18)
(0.00773573 -0.00101704 2.59747e-18)
(0.00779059 -0.00131181 1.96461e-21)
(0.0079068 -0.00142686 8.0006e-19)
(0.00802503 -0.00156784 -8.83149e-19)
(0.00815081 -0.0017175 0)
(0.00828489 -0.00187316 1.06848e-18)
(0.00842705 -0.00203541 -1.16848e-18)
(0.0085773 -0.0022039 1.27466e-18)
(0.00873557 -0.00237814 -2.07483e-18)
(0.00890172 -0.00255761 7.48872e-19)
(0.00907549 -0.0027417 8.06372e-19)
(0.00925651 -0.00292971 4.327e-19)
(0.00944403 -0.00312079 4.62447e-19)
(0.00963607 -0.00331358 -9.84403e-19)
(0.00982649 -0.00350488 -5.20599e-19)
(0.0099961 -0.00368606 -5.48473e-19)
(0.0100902 -0.00383374 5.84392e-22)
(0.00997112 -0.00388729 0)
(0.00933527 -0.00371027 1.55726e-18)
(0.00758706 -0.00307194 -1.60815e-18)
(0.00373238 -0.00162972 2.68304e-19)
(0.00726551 -0.00174527 -1.15002e-18)
(0.00756639 -0.00106904 -6.43095e-19)
(0.007599 -0.00138827 7.14202e-19)
(0.00770225 -0.00151017 -7.89086e-19)
(0.00780543 -0.00166102 -1.74337e-18)
(0.00791537 -0.00182125 -6.59533e-22)
(0.00803301 -0.00198831 1.05427e-18)
(0.00815823 -0.00216291 1.15283e-18)
(0.00829118 -0.00234473 0)
(0.0084319 -0.00253331 2.05266e-18)
(0.00858036 -0.00272811 -1.48025e-18)
(0.00873646 -0.0029285 7.96625e-19)
(0.00889992 -0.00313377 -4.28676e-19)
(0.00907017 -0.00334301 -9.16109e-19)
(0.00924559 -0.00355484 0)
(0.00942092 -0.00376608 5.1711e-19)
(0.00957922 -0.003968 1.08683e-21)
(0.00967076 -0.00413654 -2.84916e-19)
(0.00956765 -0.00420779 0)
(0.0089813 -0.00403417 -3.10225e-19)
(0.00733069 -0.00335908 0)
(0.00362284 -0.00179276 -2.68995e-19)
(0.00706679 -0.00182141 2.26933e-18)
(0.00739418 -0.00109837 -8.17821e-22)
(0.00740491 -0.00143786 0)
(0.00749514 -0.00156496 1.55607e-18)
(0.00758275 -0.00172345 1.72035e-18)
(0.00767599 -0.00189203 -9.46659e-19)
(0.00777608 -0.00206833 -1.04024e-18)
(0.00788305 -0.00225321 -1.14019e-18)
(0.00799719 -0.00244641 1.24119e-18)
(0.0081187 -0.00264749 0)
(0.00824769 -0.00285593 0)
(0.00838417 -0.00307108 -1.57637e-18)
(0.00852803 -0.0032922 0)
(0.00867887 -0.00351839 -4.53508e-19)
(0.00883542 -0.00374827 9.64672e-19)
(0.00899331 -0.00397876 -5.11011e-19)
(0.00913793 -0.0042013 -5.3941e-19)
(0.00922488 -0.00439177 1.70136e-18)
(0.00913673 -0.00448426 0)
(0.00860162 -0.00432191 0)
(0.00705528 -0.00362293 0)
(0.00350626 -0.00194756 0)
(0.00686147 -0.00186694 0)
(0.00722118 -0.00110926 -1.24787e-18)
(0.00721208 -0.00146131 0)
(0.00729007 -0.00159248 -7.67293e-19)
(0.00736216 -0.00175586 -1.693e-18)
(0.00743811 -0.00193013 -9.31285e-19)
(0.00751973 -0.00211314 0)
(0.00760727 -0.00230588 -1.56674e-21)
(0.00770123 -0.00250816 1.22234e-18)
(0.00780199 -0.0027196 0)
(0.00790982 -0.00293968 1.44048e-18)
(0.00802488 -0.00316777 -7.75948e-19)
(0.00814718 -0.0034031 0)
(0.0082765 -0.00364477 -2.23534e-18)
(0.00841192 -0.00389144 9.53064e-19)
(0.00854993 -0.00414019 9.55248e-22)
(0.00867821 -0.00438288 0)
(0.00875784 -0.00459595 0)
(0.00868249 -0.00471288 0)
(0.00819866 -0.00456976 0)
(0.00676157 -0.00386071 -1.5855e-18)
(0.00338272 -0.00209311 2.15308e-18)
(0.00664174 -0.00187881 1.09853e-18)
(0.00704265 -0.00110747 -1.22488e-18)
(0.00701206 -0.00144972 2.72214e-18)
(0.0070771 -0.00158262 -9.15667e-22)
(0.00713494 -0.00174725 1.90612e-21)
(0.00719474 -0.00192515 9.1655e-19)
(0.00725884 -0.00211351 1.00642e-18)
(0.0073276 -0.00231296 -7.82535e-22)
(0.00740168 -0.00252323 -1.20387e-18)
(0.00748161 -0.0027439 1.30753e-18)
(0.00756783 -0.00297445 -1.41774e-18)
(0.00766064 -0.00321426 2.2944e-18)
(0.00776025 -0.00346258 0)
(0.00786662 -0.00371853 2.6451e-18)
(0.00797916 -0.00398084 -9.40389e-19)
(0.00809517 -0.00424682 -1.21795e-22)
(0.00820457 -0.00450896 1.05644e-18)
(0.00827389 -0.00474484 1.11239e-18)
(0.0082083 -0.00488883 -1.16523e-18)
(0.00777406 -0.00477259 1.21519e-18)
(0.00644921 -0.00406807 3.15683e-19)
(0.00325131 -0.00222727 -1.07711e-18)
(0.00642158 -0.00186982 -1.08357e-18)
(0.00696463 -0.0012033 1.20755e-18)
(0.00693705 -0.00152048 -3.33175e-21)
(0.00698321 -0.00166175 -1.48342e-18)
(0.00701883 -0.00181891 8.18925e-19)
(0.00705219 -0.001988 -9.0171e-19)
(0.007088 -0.0021682 -9.89415e-19)
(0.00712753 -0.00236087 2.16527e-18)
(0.00717178 -0.00256624 -1.1818e-18)
(0.00722151 -0.00278413 -1.28468e-18)
(0.00727733 -0.00301414 2.08933e-18)
(0.00733968 -0.00325568 -2.25742e-18)
(0.0074089 -0.00350802 -8.10767e-19)
(0.00748511 -0.00377025 8.66838e-19)
(0.00756797 -0.00404111 0)
(0.00765547 -0.00431812 -4.93149e-19)
(0.00773956 -0.00459442 5.21184e-19)
(0.00779203 -0.00484913 1.09969e-18)
(0.0077295 -0.00501882 -5.77135e-19)
(0.00733901 -0.00493354 1.2046e-18)
(0.00612451 -0.00424573 -1.25147e-18)
(0.00311416 -0.0023503 0)
(0.00577983 -0.00147601 -1.06407e-18)
(0.00635662 -0.000908698 -1.84535e-21)
(0.00641547 -0.0010505 -1.31472e-18)
(0.00647999 -0.00119621 0)
(0.00653688 -0.00137268 0)
(0.00658718 -0.00157224 1.21077e-21)
(0.00663572 -0.00178791 9.31321e-22)
(0.0066844 -0.00201742 -2.12071e-18)
(0.00673432 -0.00225966 1.15699e-18)
(0.00678633 -0.00251381 0)
(0.00684107 -0.00277923 -6.83619e-19)
(0.00689912 -0.0030552 1.47648e-18)
(0.00696094 -0.00334097 -2.38447e-18)
(0.00702688 -0.00363565 -8.52754e-19)
(0.0070969 -0.00393807 -3.5048e-22)
(0.0071697 -0.00424602 9.69598e-19)
(0.00723908 -0.00455337 -5.14386e-19)
(0.0072818 -0.00484096 -1.08491e-18)
(0.00722582 -0.00504835 5.69223e-19)
(0.00687996 -0.00500641 -5.96484e-19)
(0.00577766 -0.00435421 1.2403e-18)
(0.0029636 -0.00244021 1.07639e-18)
(0.00719457 -0.00141233 -5.61441e-19)
(0.00695062 -0.00172258 -1.87426e-18)
(0.00693852 -0.00174292 1.38591e-18)
(0.0069016 -0.00182676 0)
(0.0068738 -0.00194188 0)
(0.00684877 -0.00207884 9.27378e-19)
(0.00682583 -0.00223467 -1.08056e-21)
(0.00680549 -0.00240788 2.22068e-18)
(0.00678844 -0.00259779 -1.21186e-18)
(0.00677544 -0.00280394 -9.36406e-22)
(0.00676721 -0.0030259 1.42204e-18)
(0.00676443 -0.00326312 0)
(0.00676768 -0.00351489 8.24077e-19)
(0.00677741 -0.00378027 0)
(0.00679376 -0.00405795 9.41318e-19)
(0.00681571 -0.00434539 -1.4988e-18)
(0.00683794 -0.00463597 -3.06328e-22)
(0.00683962 -0.00490967 5.55155e-19)
(0.00675511 -0.00510518 0)
(0.00640957 -0.00505275 -6.04573e-19)
(0.00537096 -0.00438688 1.25057e-18)
(0.00274511 -0.00244875 -1.07786e-18)
(0.00687099 -0.000915109 2.86017e-18)
(0.00639829 -0.00120226 6.16303e-22)
(0.00641437 -0.00129279 2.11104e-18)
(0.00637911 -0.00144526 7.78501e-19)
(0.00636388 -0.00161005 -1.71375e-18)
(0.00635254 -0.00179014 0)
(0.00634229 -0.00198522 -2.06661e-18)
(0.00633271 -0.00219456 1.12803e-18)
(0.00632382 -0.00241771 -1.22881e-18)
(0.00631595 -0.00265427 -1.33428e-18)
(0.0063096 -0.00290378 -7.21646e-19)
(0.00630533 -0.00316569 -7.78006e-19)
(0.00630374 -0.00343931 -2.5093e-18)
(0.00630535 -0.00372377 1.78837e-18)
(0.00631039 -0.00401777 0)
(0.00631796 -0.00431865 -5.05429e-19)
(0.00632277 -0.00461905 -1.06627e-18)
(0.00630432 -0.00489688 1.67983e-18)
(0.0062 -0.00508698 5.84564e-19)
(0.00584795 -0.00501722 0)
(0.00486026 -0.00432758 9.42988e-19)
(0.0024552 -0.00238024 -2.42042e-18)
(0.0067403 -0.00102283 -1.7456e-18)
(0.00632466 -0.00129326 -1.29275e-18)
(0.00636154 -0.00139729 -7.17274e-19)
(0.00630905 -0.00154686 2.37257e-18)
(0.00627008 -0.0017033 -8.70114e-19)
(0.00623171 -0.00187331 1.91576e-18)
(0.00619306 -0.00205755 9.90387e-22)
(0.00615438 -0.00225593 -2.29207e-18)
(0.00611585 -0.00246838 1.24937e-18)
(0.00607786 -0.00269465 0)
(0.00604093 -0.00293437 7.33135e-19)
(0.00600565 -0.00318704 -7.89238e-19)
(0.00597261 -0.00345197 8.46508e-19)
(0.00594237 -0.00372826 9.05124e-19)
(0.00591517 -0.00401451 9.6349e-19)
(0.00589008 -0.0043078 -1.02024e-18)
(0.00586166 -0.0046 0)
(0.00580976 -0.00486725 -1.12849e-18)
(0.005675 -0.00504155 1.17747e-18)
(0.00530883 -0.0049505 -2.4444e-18)
(0.00436676 -0.00424139 1.262e-18)
(0.00217572 -0.00229815 2.68368e-19)
(0.00656757 -0.00102827 -5.89541e-19)
(0.00617971 -0.00125565 -6.54461e-19)
(0.00620482 -0.00136425 0)
(0.0061402 -0.00151431 -1.60773e-18)
(0.00608635 -0.0016713 8.85777e-19)
(0.00603127 -0.0018408 -1.94646e-18)
(0.0059743 -0.00202347 1.06508e-18)
(0.00591583 -0.00221939 1.35932e-21)
(0.0058561 -0.00242862 0)
(0.00579555 -0.00265107 0)
(0.00573475 -0.00288649 0)
(0.00567435 -0.00313447 0)
(0.00561503 -0.00339441 8.57343e-19)
(0.00555744 -0.00366548 -9.15077e-19)
(0.00550192 -0.0039463 -9.73127e-19)
(0.00544756 -0.00423375 1.54382e-18)
(0.00538901 -0.00451911 0)
(0.00530689 -0.00477706 5.67554e-19)
(0.00514583 -0.00493783 2.07195e-18)
(0.00477162 -0.00483065 -1.22709e-18)
(0.00388261 -0.00411344 3.16503e-19)
(0.0019071 -0.00219851 0)
(0.00640745 -0.00101937 1.28788e-21)
(0.00604863 -0.00121977 1.99754e-18)
(0.00605511 -0.00132947 7.38148e-19)
(0.00597815 -0.00147495 -8.14575e-19)
(0.00590825 -0.00162752 0)
(0.00583542 -0.00179185 9.87041e-19)
(0.00575923 -0.00196864 -2.16091e-18)
(0.00568017 -0.00215809 2.94982e-18)
(0.00559859 -0.00236037 -6.41553e-19)
(0.00551496 -0.00257548 0)
(0.0054299 -0.00280328 1.50329e-18)
(0.00534413 -0.00304344 -8.08512e-19)
(0.00525841 -0.00329544 4.32893e-19)
(0.00517346 -0.0035585 0)
(0.0050897 -0.00383124 4.90493e-19)
(0.00500633 -0.00411036 5.18588e-19)
(0.00491821 -0.00438661 5.4561e-19)
(0.00480716 -0.00463365 -1.71341e-18)
(0.00462268 -0.00478099 -3.61739e-22)
(0.00424572 -0.00466159 3.07576e-19)
(0.00341619 -0.00394745 0)
(0.00165403 -0.00208462 -2.66021e-19)
(0.00625241 -0.000992803 6.0789e-19)
(0.00592177 -0.00116844 -6.76365e-19)
(0.0059069 -0.00127604 -1.27075e-22)
(0.00581774 -0.00141426 8.25624e-19)
(0.00573221 -0.00155986 0)
(0.00564223 -0.00171656 1.00003e-18)
(0.00554746 -0.001885 -1.09386e-18)
(0.00544844 -0.00206549 1.19432e-18)
(0.00534556 -0.00225827 -1.9491e-18)
(0.00523934 -0.00246346 1.407e-18)
(0.00513047 -0.00268101 0)
(0.00501971 -0.00291072 -8.17233e-19)
(0.00490792 -0.00315217 -4.37497e-19)
(0.00479592 -0.00340466 0)
(0.00468425 -0.00366684 -1.48415e-18)
(0.00457227 -0.00393529 1.04441e-18)
(0.00445528 -0.00420042 5.48592e-19)
(0.00431672 -0.00443534 -8.60589e-19)
(0.00411164 -0.00457008 -2.98453e-19)
(0.00373667 -0.00444346 -3.08666e-19)
(0.00297134 -0.0037447 0)
(0.00141769 -0.00195738 -7.95093e-19)
(0.00610309 -0.000947234 0)
(0.0058003 -0.00109877 6.83071e-19)
(0.00576354 -0.00120189 0)
(0.00566242 -0.00133065 0)
(0.00556189 -0.00146688 0)
(0.00545554 -0.00161351 1.01064e-18)
(0.00534305 -0.00177116 -1.10724e-18)
(0.00522494 -0.00194018 2.41417e-18)
(0.0051016 -0.0021209 -1.31207e-18)
(0.0049736 -0.00231355 -1.42206e-18)
(0.00484164 -0.00251821 2.30043e-18)
(0.00470654 -0.00273481 -4.12002e-19)
(0.00456924 -0.00296308 8.81824e-19)
(0.00443068 -0.00320245 -9.38914e-19)
(0.00429156 -0.00345161 4.97571e-19)
(0.00415148 -0.00370715 0)
(0.00400636 -0.00395932 0)
(0.00384167 -0.0041813 -1.72756e-18)
(0.00361851 -0.0043049 1.19621e-18)
(0.00324927 -0.00417684 0)
(0.00255083 -0.00350638 0)
(0.0011985 -0.00181727 0)
(0.00596213 -0.000883317 6.22743e-19)
(0.00568695 -0.00101133 -1.38173e-18)
(0.00562911 -0.00110785 7.65752e-19)
(0.00551667 -0.00122519 1.0656e-21)
(0.00540213 -0.00134982 -9.30084e-19)
(0.0052805 -0.00148403 -1.02211e-18)
(0.00515145 -0.00162841 5.59714e-19)
(0.0050154 -0.00178339 -1.82857e-18)
(0.00487276 -0.00194938 1.32532e-18)
(0.00472404 -0.00212673 -1.43381e-18)
(0.00456996 -0.00231566 -7.73512e-19)
(0.00441138 -0.00251628 4.14812e-19)
(0.00424929 -0.0027285 0)
(0.00408475 -0.00295193 0)
(0.00391864 -0.00318541 -5.00836e-19)
(0.00375088 -0.00342562 -1.31932e-18)
(0.00357821 -0.00366298 -2.7686e-19)
(0.00338844 -0.00387136 1.7325e-18)
(0.00314905 -0.00398562 -1.19882e-18)
(0.00278799 -0.00386238 9.28055e-19)
(0.00215699 -0.00323338 1.27012e-18)
(0.000996665 -0.00166448 -1.05156e-18)
(0.00583255 -0.000801987 -6.27931e-19)
(0.00558439 -0.00090728 8.05816e-22)
(0.00550712 -0.000995141 -7.72097e-19)
(0.00538445 -0.00109931 1.70656e-18)
(0.00525729 -0.00121031 -4.69302e-19)
(0.00512186 -0.00132989 0)
(0.00497778 -0.00145864 5.64157e-19)
(0.00482538 -0.00159704 -1.84461e-18)
(0.00466496 -0.0017456 1.33514e-18)
(0.00449701 -0.00190477 3.6119e-19)
(0.00432216 -0.00207497 0)
(0.00414127 -0.0022565 0)
(0.00395535 -0.0024495 0)
(0.00376556 -0.00265384 -9.5032e-19)
(0.00357295 -0.00286862 2.01172e-18)
(0.00337784 -0.0030908 2.6527e-19)
(0.00317793 -0.0033113 2.77964e-19)
(0.00296362 -0.00350536 -1.44721e-18)
(0.00270897 -0.00361222 0)
(0.00235699 -0.0035003 3.09671e-19)
(0.00179181 -0.00292599 0)
(0.000812314 -0.00149886 1.04753e-18)
(0.00571737 -0.000704819 -6.33836e-19)
(0.00549516 -0.00078856 5.05303e-22)
(0.00540072 -0.000865844 0)
(0.00526929 -0.000955335 -8.60564e-19)
(0.0051313 -0.00105088 -9.46946e-19)
(0.00498397 -0.00115382 0)
(0.00482686 -0.00126471 0)
(0.00466014 -0.0013841 3.09967e-19)
(0.004484 -0.00151255 0)
(0.00429878 -0.00165064 7.27342e-19)
(0.00410503 -0.00179894 -3.91711e-19)
(0.00390349 -0.00195799 0)
(0.00369512 -0.00212823 1.12233e-18)
(0.0034811 -0.00230984 -7.1571e-19)
(0.00326261 -0.00250233 2.52352e-19)
(0.00304039 -0.00270319 1.06308e-18)
(0.00281319 -0.00290424 -1.11315e-18)
(0.0025742 -0.00308291 1.15989e-18)
(0.0023041 -0.00318412 -1.35191e-18)
(0.00196036 -0.00308998 0)
(0.00145716 -0.00258366 1.11077e-18)
(0.000645568 -0.00131981 1.30456e-19)
(0.00561926 -0.00059426 1.27847e-18)
(0.0054214 -0.000658018 7.83354e-22)
(0.0053126 -0.000723031 -7.85304e-19)
(0.00517424 -0.000796609 8.65737e-19)
(0.00502761 -0.000875177 4.76868e-19)
(0.00487069 -0.000959749 0)
(0.004703 -0.00105084 5.72102e-19)
(0.00452452 -0.001149 -6.22615e-19)
(0.00433528 -0.00125481 -1.01467e-18)
(0.00413543 -0.00136894 -6.78948e-22)
(0.00392532 -0.0014921 1.18122e-18)
(0.00370549 -0.00162504 -8.44298e-19)
(0.00347671 -0.00176848 6.76235e-19)
(0.00324003 -0.00192305 -2.39219e-19)
(0.00299665 -0.00208879 -2.53009e-19)
(0.00274763 -0.002264 -1.06552e-18)
(0.00249279 -0.00244194 -1.3939e-19)
(0.00222815 -0.00260313 0)
(0.00194097 -0.0026997 9.11276e-23)
(0.00160252 -0.00262941 -1.54789e-19)
(0.00115496 -0.00220445 1.58641e-19)
(0.000496602 -0.00112605 -6.5095e-20)
(0.00554012 -0.000473381 0)
(0.00536452 -0.000518887 0)
(0.00524452 -0.000570158 0)
(0.00510129 -0.00062685 -8.71535e-19)
(0.00494845 -0.000687234 4.79144e-19)
(0.00478455 -0.000752059 2.62873e-19)
(0.00460909 -0.000821766 2.87368e-19)
(0.00442185 -0.000896841 -3.13265e-19)
(0.0042227 -0.000977849 1.0192e-18)
(0.00401154 -0.00106544 -3.67399e-19)
(0.00378844 -0.00116038 0)
(0.00355361 -0.00126354 -8.47862e-19)
(0.00330751 -0.00137591 -3.69208e-22)
(0.00305081 -0.00149848 1.92133e-18)
(0.00278451 -0.00163196 -1.0152e-18)
(0.00250969 -0.00177575 1.33443e-19)
(0.00222703 -0.00192516 1.25684e-18)
(0.00193518 -0.00206491 -1.45117e-19)
(0.00162774 -0.0021561 -1.0527e-18)
(0.00128905 -0.00211466 1.54865e-19)
(0.000887737 -0.00178452 0)
(0.000365841 -0.000915451 -6.48713e-20)
(0.00547809 -0.000337868 3.23409e-19)
(0.00532211 -0.000367175 -3.58088e-19)
(0.00519379 -0.000403945 0)
(0.00504734 -0.000443571 8.75875e-19)
(0.00489025 -0.00048546 -9.63249e-19)
(0.00472151 -0.00053012 2.63763e-19)
(0.00454063 -0.000577861 -2.8872e-19)
(0.00434728 -0.000629037 0)
(0.00414116 -0.000684072 8.52915e-19)
(0.00392201 -0.000743489 -1.29013e-18)
(0.00368961 -0.000807939 7.93169e-19)
(0.00344383 -0.000878251 0)
(0.00318467 -0.000955464 0)
(0.0029123 -0.00104082 8.42675e-19)
(0.00262713 -0.00113561 -1.01713e-18)
(0.00232987 -0.00124044 5.34698e-19)
(0.00202145 -0.00135325 -5.59098e-19)
(0.00170248 -0.00146427 1.45441e-19)
(0.00137197 -0.00154589 0)
(0.0010261 -0.00153566 0)
(0.000658745 -0.00131359 0)
(0.000254029 -0.000682141 3.23469e-20)
(0.00540124 -0.000253488 -1.61966e-19)
(0.0052565 -0.000270874 0)
(0.00511756 -0.000293084 -3.98423e-19)
(0.00496432 -0.000315312 8.78698e-19)
(0.00479977 -0.000337816 -9.66668e-19)
(0.00462338 -0.000361019 5.29726e-19)
(0.00443485 -0.000385123 -5.79462e-19)
(0.00423401 -0.000410327 6.30414e-19)
(0.00402068 -0.000436859 -2.56571e-19)
(0.00379468 -0.000465005 -9.24413e-20)
(0.00355581 -0.000495147 0)
(0.00330385 -0.000527809 -4.2614e-19)
(0.00303852 -0.000563726 4.54247e-19)
(0.00275953 -0.000603913 1.20579e-19)
(0.00246656 -0.000649689 0)
(0.00215944 -0.000702453 -1.33838e-19)
(0.00183837 -0.000762663 -3.49722e-20)
(0.00150437 -0.00082694 0)
(0.00115951 -0.000881624 -3.76139e-20)
(0.000808668 -0.000891065 -3.86907e-20)
(0.000467784 -0.000779508 0)
(0.000161738 -0.000413508 -3.22972e-20)
(0.0046968 3.77337e-05 -1.58631e-19)
(0.00454153 3.47216e-05 -3.51211e-19)
(0.00437344 2.92173e-05 3.87241e-19)
(0.00419593 2.34212e-05 -4.26922e-19)
(0.00401085 1.70051e-05 2.33725e-19)
(0.00381884 9.74879e-06 -2.6882e-22)
(0.00362053 1.57435e-06 2.79135e-19)
(0.00341646 -7.56665e-06 -7.23365e-26)
(0.00320715 -1.77116e-05 8.21115e-20)
(0.002993 -2.89003e-05 -8.8534e-20)
(0.00277436 -4.11917e-05 0)
(0.0025514 -5.46864e-05 0)
(0.00232415 -6.95666e-05 1.03236e-25)
(0.00209236 -8.61586e-05 0)
(0.00185539 -0.000105021 4.84376e-19)
(0.00161217 -0.000127017 -1.01715e-18)
(0.00136115 -0.000153219 5.64623e-19)
(0.00110072 -0.000184223 -5.27007e-25)
(0.000829871 -0.000218148 3.57315e-20)
(0.000551452 -0.000245846 3.6775e-20)
(0.000287571 -0.000240013 1.14898e-24)
(8.89172e-05 -0.000140783 0)
(0.00540762 4.8679e-05 -1.64452e-19)
(0.00519111 5.89881e-05 0)
(0.00497472 7.19791e-05 1.00278e-19)
(0.00475123 8.52663e-05 0)
(0.00452137 9.88614e-05 0)
(0.00428475 0.000112763 0)
(0.00404116 0.000126932 0)
(0.00379057 0.000141331 -7.82382e-20)
(0.0035331 0.000155922 8.48094e-20)
(0.00326898 0.000170667 9.14052e-20)
(0.00299858 0.000185526 -9.81527e-20)
(0.00272237 0.000200459 0)
(0.00244091 0.000215426 5.59136e-20)
(0.00215486 0.00023037 5.92819e-20)
(0.00186497 0.000245185 -1.25112e-19)
(0.00157216 0.000259594 1.31403e-19)
(0.00127777 0.000272827 -3.43188e-20)
(0.000984254 0.000282886 0)
(0.000695908 0.000285116 -7.37802e-20)
(0.000421706 0.000269935 7.58914e-20)
(0.000188606 0.000219874 7.76449e-20)
(4.61615e-05 0.000107746 -6.31815e-20)
(0.00543407 0.000377517 0)
(0.00520933 0.00039043 0)
(0.00499753 0.000412151 1.00206e-19)
(0.00477636 0.000436147 2.2044e-19)
(0.00454912 0.000462294 0)
(0.00431523 0.000490568 2.64247e-19)
(0.00407441 0.000520829 -4.32229e-19)
(0.00382667 0.000552951 7.04241e-19)
(0.00357209 0.000586807 -5.08306e-19)
(0.00331094 0.000622265 -1.82655e-19)
(0.00304355 0.000659186 2.94423e-19)
(0.0027704 0.000697424 1.04952e-19)
(0.00249203 0.000736814 -5.59031e-20)
(0.00220911 0.000777144 -5.92718e-20)
(0.00192235 0.000818028 0)
(0.00163261 0.000858523 -1.3134e-19)
(0.00134105 0.000896095 1.02932e-19)
(0.00104968 0.000924235 2.85339e-19)
(0.000761683 0.000927874 -2.95081e-19)
(0.000483808 0.000876022 -3.03513e-19)
(0.000239126 0.000712275 6.21082e-19)
(7.13438e-05 0.000348773 -5.05459e-19)
(0.00549064 0.000614763 3.33927e-22)
(0.00525119 0.000639971 0)
(0.00504928 0.00067754 -5.9987e-19)
(0.00483319 0.000719479 1.09971e-18)
(0.00461147 0.00076497 -7.23871e-19)
(0.00438321 0.000813961 -5.27332e-19)
(0.00414807 0.000866197 4.31472e-19)
(0.00390606 0.000921445 -4.68491e-19)
(0.00365729 0.000979478 -1.68958e-19)
(0.00340198 0.00104007 3.64789e-19)
(0.00314049 0.00110297 0)
(0.00287326 0.00116794 -1.04803e-19)
(0.00260084 0.00123472 -4.46428e-19)
(0.00232385 0.00130294 1.11099e-22)
(0.00204297 0.00137198 -1.24804e-19)
(0.00175892 0.00144028 6.56091e-19)
(0.00147251 0.00150364 6.16956e-19)
(0.00118481 0.00155122 -4.26268e-23)
(0.000896856 0.00155785 -5.89775e-19)
(0.000610862 0.00147152 0)
(0.000342086 0.00119729 0)
(0.000122537 0.000586768 1.89642e-19)
(0.00557243 0.000867393 3.26499e-19)
(0.00531094 0.000904947 0)
(0.00512386 0.000954508 -3.98377e-19)
(0.0049154 0.00101129 -8.76409e-19)
(0.00470199 0.00107306 1.20175e-18)
(0.00448221 0.00113983 -5.2586e-19)
(0.00425561 0.00121124 0)
(0.00402222 0.00128698 1.58111e-22)
(0.00378217 0.00136671 -1.01086e-18)
(0.00353567 0.00145012 3.63846e-19)
(0.00328306 0.00153688 -3.90595e-19)
(0.00302478 0.00162663 6.27204e-19)
(0.00276133 0.001719 0)
(0.00249332 0.0018135 0)
(0.00222135 0.00190926 -1.24566e-19)
(0.00194596 0.00200417 0)
(0.00166745 0.00209245 -1.36923e-19)
(0.00138553 0.0021592 0)
(0.00109801 0.00216951 -1.47245e-19)
(0.000800368 0.00205104 1.51529e-19)
(0.000496065 0.00167082 0)
(0.000199314 0.000820046 -3.79523e-19)
(0.00567707 0.00109544 -6.50004e-19)
(0.00538814 0.00114953 -7.18925e-19)
(0.00522041 0.00121027 3.96652e-19)
(0.00502203 0.00128182 -4.35959e-19)
(0.00481963 0.00135961 4.78186e-19)
(0.00461107 0.00144377 1.04593e-18)
(0.00439576 0.00153391 -4.15552e-22)
(0.0041738 0.0016296 3.10004e-19)
(0.00394529 0.00173045 -3.35327e-19)
(0.00371046 0.00183605 1.44844e-18)
(0.00346962 0.00194598 -1.55628e-18)
(0.00322318 0.0020598 1.45769e-18)
(0.00297164 0.00217705 0)
(0.00271554 0.00229712 0)
(0.0024554 0.00241892 9.94526e-19)
(0.00219154 0.00253985 -1.30633e-18)
(0.00192361 0.00265275 0)
(0.00164957 0.00273896 -8.52551e-19)
(0.00136306 0.00275453 1.32373e-18)
(0.00105067 0.00260761 -7.57113e-19)
(0.000700082 0.00212805 0)
(0.00030139 0.00104671 -6.33318e-20)
(0.00580268 0.00130076 6.44853e-19)
(0.005482 0.00137485 7.1475e-19)
(0.0053377 0.00144497 7.8743e-19)
(0.00515163 0.00153042 -4.33596e-19)
(0.00496272 0.00162319 -4.75506e-19)
(0.00476789 0.00172365 -1.03983e-18)
(0.00456642 0.00183138 5.67131e-19)
(0.00435847 0.00194586 -6.15987e-19)
(0.00414414 0.00206664 6.67564e-19)
(0.00392364 0.00219323 -3.60224e-19)
(0.00369728 0.00232514 -7.73754e-19)
(0.00346542 0.00246186 -4.14299e-19)
(0.00322855 0.00260283 1.32537e-18)
(0.00298714 0.00274734 9.37701e-19)
(0.00274163 0.00289414 -1.73366e-18)
(0.00249207 0.00304019 2.60623e-19)
(0.00223735 0.0031772 2.1793e-18)
(0.00197341 0.00328321 -8.50563e-19)
(0.00168885 0.00330603 0)
(0.00135935 0.00313543 0)
(0.000952774 0.00256509 0)
(0.000428442 0.00126544 5.07184e-19)
(0.00594593 0.00147882 -1.27959e-18)
(0.00559051 0.00157636 7.09143e-19)
(0.0054732 0.00165401 1.56301e-18)
(0.00530143 0.00175238 -8.64473e-22)
(0.00512825 0.00185895 -1.88624e-18)
(0.00494945 0.00197442 -4.77602e-22)
(0.00476415 0.0020984 5.62345e-19)
(0.0045726 0.0022303 0)
(0.00437489 0.0023696 0)
(0.00417122 0.00251578 7.14913e-19)
(0.00396187 0.00266826 3.84725e-19)
(0.00374719 0.00282648 4.1194e-19)
(0.0035276 0.00298979 -1.3181e-18)
(0.00330355 0.00315741 -4.66199e-19)
(0.00307536 0.00332796 -4.92746e-19)
(0.00284279 0.00349809 -2.59165e-19)
(0.00260396 0.00365861 0)
(0.00235252 0.00378483 -2.82536e-19)
(0.00207135 0.00381732 -1.46423e-18)
(0.00172337 0.00362891 1.11285e-23)
(0.00125254 0.00297826 1.23796e-18)
(0.000580182 0.00147508 -1.26948e-19)
(0.00610298 0.00162672 -6.33159e-19)
(0.00571115 0.00175064 -7.01239e-19)
(0.00562373 0.00183386 8.61448e-22)
(0.00546794 0.001944 -8.50065e-19)
(0.00531247 0.00206295 9.35549e-19)
(0.00515171 0.00219195 5.10213e-19)
(0.00498468 0.00233062 -5.5771e-19)
(0.00481168 0.00247833 -1.21189e-18)
(0.00463282 0.00263453 2.62739e-18)
(0.00444827 0.00279864 -7.10237e-19)
(0.00425828 0.00297006 -1.52627e-18)
(0.00406318 0.00314814 8.17501e-19)
(0.00386334 0.00333221 0)
(0.00365916 0.00352139 9.26724e-19)
(0.00345085 0.00371422 4.90284e-19)
(0.00323793 0.0039072 2.58038e-19)
(0.00301766 0.00409048 -1.08062e-18)
(0.00278138 0.00423735 1.40807e-18)