/*--------------------------------*- C++ -*----------------------------------*\
| =========                 |                                                 |
| \\      /  F ield         | foam-extend: Open Source CFD                    |
|  \\    /   O peration     | Version:     3.1                                |
|   \\  /    A nd           | Web:         http://www.extend-project.de       |
|    \\/     M anipulation  |                                                 |
\*---------------------------------------------------------------------------*/
FoamFile
{
    version     2.0;
    format      ascii;
    class       volVectorField;
    location    "0.005";
    object      U_0;
}
// * * * * * * * * * * * * * * * * * * * * * * * * * * * * * * * * * * * * * //

dimensions      [0 1 -1 0 0 0 0];

internalField   nonuniform List<vector> 
20940
(
(0.00539778 6.51441e-05 1.24021e-19)
(0.00547778 9.17459e-05 6.91075e-20)
(0.00558733 7.68002e-05 -1.53275e-19)
(0.00570346 6.70286e-05 0)
(0.00582529 5.62738e-05 0)
(0.00595312 4.45119e-05 -1.031e-19)
(0.00608676 3.19767e-05 1.13066e-19)
(0.006226 1.873e-05 1.23501e-19)
(0.00637057 4.84241e-06 -2.01775e-19)
(0.00652016 -9.6089e-06 7.29899e-20)
(0.00667442 -2.45446e-05 7.87631e-20)
(0.00683292 -3.98811e-05 8.47369e-20)
(0.00699516 -5.55304e-05 9.08702e-20)
(0.0071604 -7.13938e-05 2.89124e-24)
(0.00732709 -8.73461e-05 -5.14562e-20)
(0.00749079 -0.000103183 0)
(0.00763817 -0.000118485 -5.70146e-20)
(0.00773118 -0.000132257 -9.88822e-25)
(0.00767132 -0.000141982 1.23912e-19)
(0.00723132 -0.000142047 -6.40773e-20)
(0.00594953 -0.000123105 0)
(0.0030145 -7.00109e-05 0)
(0.00537343 -0.00011766 1.23629e-19)
(0.00545607 -3.27086e-05 -1.37736e-19)
(0.0055628 -6.99453e-05 7.65583e-20)
(0.00567699 -9.02563e-05 1.68987e-19)
(0.00579684 -0.000112243 0)
(0.00592266 -0.000135951 -2.05513e-19)
(0.00605431 -0.000160798 4.50407e-19)
(0.00619156 -0.00018671 -6.16517e-20)
(0.00633415 -0.000213585 6.71271e-20)
(0.00648179 -0.000241305 0)
(0.00663412 -0.000269747 -3.92662e-19)
(0.00679073 -0.000298785 8.43834e-20)
(0.00695113 -0.000328289 9.05953e-20)
(0.0071146 -0.000358111 -1.92895e-19)
(0.00727959 -0.000388053 -5.12211e-20)
(0.00744173 -0.000417709 0)
(0.00758777 -0.000446068 1.13339e-19)
(0.00767992 -0.000470416 1.18576e-19)
(0.00762033 -0.000483456 -1.23266e-19)
(0.00718315 -0.000468247 -1.27477e-19)
(0.00590931 -0.000395585 1.31131e-19)
(0.00299253 -0.000218349 0)
(0.00533217 -0.000294277 -2.45991e-19)
(0.00542283 -0.000152421 5.47786e-19)
(0.00552417 -0.00021154 0)
(0.005635 -0.000242195 1.67702e-19)
(0.00575147 -0.000275216 3.71855e-19)
(0.00587386 -0.000310672 -4.09095e-19)
(0.00600209 -0.00034764 -2.24668e-19)
(0.00613595 -0.000386036 -2.45253e-19)
(0.00627518 -0.000425731 2.6703e-19)
(0.00641951 -0.000466564 2.89332e-19)
(0.00656858 -0.000508371 1.56679e-19)
(0.006722 -0.000550982 0)
(0.00687929 -0.000594218 4.50893e-19)
(0.00703975 -0.000637876 -3.84437e-19)
(0.00720184 -0.000681663 -4.07703e-19)
(0.00736129 -0.000724952 5.38269e-19)
(0.00750511 -0.000766115 -1.13234e-19)
(0.00759611 -0.000800724 -2.36459e-19)
(0.00753791 -0.00081678 -1.23075e-19)
(0.00710743 -0.000786292 2.54295e-19)
(0.00584956 -0.000661007 0)
(0.00296277 -0.000363408 0)
(0.00527074 -0.000461698 0)
(0.00537335 -0.000264871 -2.72812e-19)
(0.0054675 -0.00034553 4.94912e-22)
(0.00557401 -0.000386251 -6.706e-19)
(0.00568608 -0.000430046 -1.14182e-22)
(0.00580401 -0.000476966 4.06748e-19)
(0.00592777 -0.000525775 -6.38435e-22)
(0.00605716 -0.000576385 7.31363e-19)
(0.00619196 -0.000628642 5.3137e-19)
(0.00633189 -0.000682351 -5.77112e-19)
(0.00647662 -0.000737306 0)
(0.00662579 -0.000793292 0)
(0.00677892 -0.000850081 3.59029e-19)
(0.00693533 -0.000907413 -3.82797e-19)
(0.00709357 -0.000964899 -2.02933e-19)
(0.00724948 -0.0010217 3.21665e-19)
(0.00739049 -0.00107559 0)
(0.00748038 -0.00112052 -4.71395e-19)
(0.00742489 -0.00113999 3.67528e-19)
(0.00700488 -0.00109532 1.26663e-19)
(0.00577031 -0.00091964 2.60997e-19)
(0.00292444 -0.00050532 -2.15097e-19)
(0.00519242 -0.000617677 -4.85088e-19)
(0.00531003 -0.000368179 0)
(0.00539532 -0.000469687 9.01517e-19)
(0.00549654 -0.000520014 -6.65354e-19)
(0.00560318 -0.000574184 3.66815e-19)
(0.00571553 -0.000632153 -4.04084e-19)
(0.00583369 -0.000692398 -1.15204e-21)
(0.00595747 -0.000754836 -2.42711e-19)
(0.00608668 -0.000819296 0)
(0.00622106 -0.000885547 -6.98163e-22)
(0.0063603 -0.000953347 -3.10139e-19)
(0.00650408 -0.00102244 6.66573e-19)
(0.00665194 -0.00109254 0)
(0.00680323 -0.00116334 -1.90722e-19)
(0.00695659 -0.00123437 2.01923e-19)
(0.00710806 -0.00130457 4.27202e-19)
(0.00724561 -0.0013712 4.49109e-19)
(0.0073343 -0.00142673 -4.69621e-19)
(0.00728265 -0.00145044 0)
(0.00687654 -0.00139344 3.79151e-19)
(0.00567213 -0.00117053 -5.20589e-19)
(0.00287764 -0.00064375 -1.07317e-19)
(0.00509917 -0.00075976 9.61259e-19)
(0.00523382 -0.000460322 0)
(0.00530881 -0.000581761 0)
(0.00540382 -0.000641084 6.59914e-19)
(0.00550403 -0.000705092 -1.82073e-18)
(0.00560976 -0.000773561 0)
(0.00572124 -0.000844709 -4.40627e-19)
(0.00583831 -0.000918472 -4.80628e-19)
(0.00596079 -0.000994662 0)
(0.00608847 -0.00107302 -2.84907e-19)
(0.0062211 -0.00115328 -3.08e-19)
(0.00635834 -0.00123514 9.93243e-19)
(0.00649981 -0.00131827 -7.09874e-19)
(0.00664491 -0.0014023 -5.67921e-19)
(0.00679235 -0.00148668 2.0092e-19)
(0.00693846 -0.0015702 6.69727e-23)
(0.00707185 -0.00164967 -6.70747e-19)
(0.00715921 -0.00171623 4.67648e-19)
(0.00711245 -0.00174535 0)
(0.00672359 -0.00167845 7.55817e-19)
(0.00555604 -0.00141229 -5.19139e-19)
(0.00282308 -0.000778219 -3.21919e-19)
(0.0049935 -0.000885875 -4.77135e-19)
(0.00514631 -0.000539503 -9.43475e-22)
(0.00520977 -0.000679774 1.18031e-18)
(0.00529774 -0.000747334 -6.53471e-19)
(0.00539059 -0.000820503 1.9175e-21)
(0.00548871 -0.000898776 0)
(0.00559247 -0.000980158 0)
(0.00570174 -0.00106461 1.17452e-21)
(0.00581638 -0.00115194 0)
(0.00593624 -0.00124187 0)
(0.00606109 -0.0013341 0)
(0.00619066 -0.00142829 -3.2908e-19)
(0.0063246 -0.00152409 0)
(0.00646238 -0.00162107 8.31885e-22)
(0.00660283 -0.0017186 7.99457e-19)
(0.00674258 -0.00181536 1.54203e-22)
(0.00687105 -0.00190778 -1.11174e-18)
(0.00695682 -0.00198593 2.32481e-19)
(0.00691586 -0.00202189 0)
(0.00654739 -0.00194808 -7.53629e-19)
(0.00542321 -0.00164355 1.03524e-18)
(0.00276156 -0.000908305 -4.29179e-19)
(0.00487822 -0.000994385 -9.42447e-19)
(0.00504944 -0.000604264 -5.26503e-19)
(0.00510045 -0.000762101 -5.83129e-19)
(0.00518068 -0.000836993 0)
(0.00526532 -0.000918496 7.154e-19)
(0.00535491 -0.00100572 0)
(0.00544996 -0.00109652 0)
(0.00555039 -0.00119088 4.72973e-19)
(0.00565611 -0.00128862 0)
(0.00576701 -0.00138945 -5.58598e-19)
(0.00588293 -0.00149306 0)
(0.00600365 -0.00159907 0)
(0.00612888 -0.00170708 6.99167e-19)
(0.00625817 -0.00181665 1.08063e-22)
(0.00639048 -0.00192708 0)
(0.00652279 -0.00203695 0)
(0.00664543 -0.00214246 0)
(0.00672916 -0.00223282 -4.62929e-19)
(0.00669463 -0.00227728 0)
(0.00634935 -0.00220006 -5.00251e-19)
(0.00527473 -0.0018629 7.73627e-19)
(0.00269378 -0.00103362 -4.29198e-19)
(0.00475617 -0.00108419 -9.31972e-19)
(0.00494549 -0.000653653 2.07616e-18)
(0.00498345 -0.000827622 1.56971e-21)
(0.00505538 -0.000908795 6.39496e-19)
(0.00513111 -0.000997644 -7.0591e-19)
(0.00521135 -0.00109281 0)
(0.00529679 -0.00119202 8.54049e-19)
(0.00538738 -0.00129535 -9.33985e-19)
(0.00548311 -0.00140262 1.01886e-18)
(0.00558394 -0.00151355 -1.65845e-18)
(0.00568977 -0.00162779 5.98588e-19)
(0.00580045 -0.00174496 6.4455e-19)
(0.00591576 -0.00186464 3.45867e-19)
(0.00603532 -0.00198633 3.69646e-19)
(0.00615826 -0.00210932 -7.86857e-19)
(0.00628193 -0.00223213 -4.16129e-19)
(0.00639766 -0.0023508 -4.3841e-19)
(0.00647865 -0.00245401 4.66404e-22)
(0.00645078 -0.00250879 0)
(0.00613097 -0.00243214 1.24477e-18)
(0.00511154 -0.00206894 -1.28544e-18)
(0.00262029 -0.00115377 2.14464e-19)
(0.00462998 -0.00115474 -9.19228e-19)
(0.00483687 -0.000687457 -5.14018e-19)
(0.00486159 -0.00087585 5.70875e-19)
(0.00492491 -0.000962121 -6.30726e-19)
(0.00499119 -0.00105714 -1.3935e-18)
(0.0050614 -0.00115904 -5.28624e-22)
(0.00513641 -0.00126551 8.42696e-19)
(0.00521626 -0.00137669 9.21474e-19)
(0.00530099 -0.00149243 0)
(0.00539067 -0.00161247 1.64073e-18)
(0.00548525 -0.00173645 -1.18319e-18)
(0.00558468 -0.00186399 6.36762e-19)
(0.00568881 -0.00199463 -3.42649e-19)
(0.00579734 -0.00212786 -7.32269e-19)
(0.00590958 -0.00226293 0)
(0.00602327 -0.00239837 4.1334e-19)
(0.00613081 -0.0025302 8.67589e-22)
(0.00620803 -0.00264685 -2.27743e-19)
(0.00618656 -0.00271382 0)
(0.00589378 -0.00264203 -2.47973e-19)
(0.00493445 -0.00226015 0)
(0.00254148 -0.00126831 -2.15017e-19)
(0.00450134 -0.0012059 1.81391e-18)
(0.00472608 -0.000706665 -6.68434e-22)
(0.00473798 -0.000907146 0)
(0.00479268 -0.000997257 1.24378e-18)
(0.00484919 -0.00109707 1.3751e-18)
(0.00490885 -0.00120428 -7.56676e-19)
(0.00497275 -0.00131662 -8.31482e-19)
(0.00504102 -0.00143433 -9.11371e-19)
(0.00511382 -0.0015573 9.92105e-19)
(0.00519129 -0.00168528 0)
(0.0052735 -0.00181792 0)
(0.00536046 -0.00195483 -1.26003e-18)
(0.00545211 -0.00209555 0)
(0.00554827 -0.00223954 -3.62502e-19)
(0.00564838 -0.00238606 7.71089e-19)
(0.00575061 -0.00253366 -4.08467e-19)
(0.00584846 -0.00267846 -4.31169e-19)
(0.0059205 -0.00280895 1.35996e-18)
(0.00590453 -0.0028899 0)
(0.00563944 -0.00282743 0)
(0.00474416 -0.0024349 0)
(0.00245757 -0.00137664 0)
(0.00436902 -0.00123701 0)
(0.00461409 -0.000713567 -9.97419e-19)
(0.00461441 -0.00092173 0)
(0.00466089 -0.00101438 -6.13305e-19)
(0.00470765 -0.00111729 -1.35324e-18)
(0.00475646 -0.00122814 -7.4439e-19)
(0.00480873 -0.00134479 0)
(0.00486476 -0.00146756 -1.25212e-21)
(0.00492484 -0.00159636 9.7704e-19)
(0.00498921 -0.00173097 0)
(0.00505804 -0.00187106 1.15141e-18)
(0.00513144 -0.00201623 -6.20233e-19)
(0.00520943 -0.00216601 0)
(0.00529192 -0.00231985 -1.78677e-18)
(0.00537852 -0.00247703 7.61812e-19)
(0.00546779 -0.00263615 7.62742e-22)
(0.00555431 -0.00279354 0)
(0.00561944 -0.00293807 0)
(0.00560745 -0.00303455 0)
(0.00536966 -0.00298583 0)
(0.00454119 -0.0025912 -1.26735e-18)
(0.00236859 -0.00147796 1.72105e-18)
(0.00423 -0.00124692 8.78075e-19)
(0.00450234 -0.000714641 -9.79035e-19)
(0.00449155 -0.000919129 2.17584e-18)
(0.00452955 -0.00101257 -7.42447e-22)
(0.00456698 -0.0011165 1.52662e-21)
(0.0046052 -0.00122939 7.32607e-19)
(0.00464594 -0.00134902 8.04451e-19)
(0.00468963 -0.00147561 -6.23337e-22)
(0.00473668 -0.00160904 -9.62279e-19)
(0.00478744 -0.00174909 1.04514e-18)
(0.00484219 -0.00189545 -1.13324e-18)
(0.00490114 -0.00204772 1.83397e-18)
(0.00496442 -0.00220544 0)
(0.00503205 -0.00236807 2.11431e-18)
(0.0051038 -0.00253491 -7.51682e-19)
(0.00517859 -0.00270466 -9.89614e-23)
(0.00525203 -0.00287394 8.44453e-19)
(0.00530826 -0.00303226 8.89177e-19)
(0.0052981 -0.00314531 -9.3141e-19)
(0.00508608 -0.00311441 9.71353e-19)
(0.00432577 -0.00272644 2.52341e-19)
(0.00227413 -0.00157094 -8.60978e-19)
(0.00408149 -0.00123835 -8.66113e-19)
(0.00444024 -0.000769334 9.6519e-19)
(0.00443533 -0.00095988 -2.66322e-21)
(0.00446298 -0.00105559 -1.18571e-18)
(0.00448717 -0.00115535 6.54575e-19)
(0.00450967 -0.00126319 -7.20747e-19)
(0.00453336 -0.00137836 -7.90849e-19)
(0.00455926 -0.00150142 1.73073e-18)
(0.00458802 -0.0016325 -9.4463e-19)
(0.00462015 -0.00177149 -1.02686e-18)
(0.00465606 -0.00191811 1.67005e-18)
(0.00469604 -0.00207202 -1.80441e-18)
(0.00474031 -0.00223275 -6.48068e-19)
(0.00478898 -0.00239973 6.92885e-19)
(0.00484197 -0.00257227 0)
(0.00489848 -0.00274913 -3.94191e-19)
(0.00495505 -0.00292722 4.16602e-19)
(0.00499845 -0.0030969 8.79022e-19)
(0.00498596 -0.00322541 -4.61326e-19)
(0.00479573 -0.0032143 9.6289e-19)
(0.0041018 -0.00284027 -1.00035e-18)
(0.00217532 -0.00165509 0)
(0.00366982 -0.000971279 -8.50532e-19)
(0.0040329 -0.00055981 -1.46638e-21)
(0.00408086 -0.000644717 -1.05087e-18)
(0.00412227 -0.000740369 0)
(0.00416014 -0.000854179 0)
(0.00419431 -0.000982588 9.68192e-22)
(0.00422735 -0.00112138 7.45438e-22)
(0.00426045 -0.00126901 -1.69512e-18)
(0.00429431 -0.00142473 9.24799e-19)
(0.00432943 -0.00158801 0)
(0.0043662 -0.00175841 -5.4643e-19)
(0.00440499 -0.00193547 1.18019e-18)
(0.00444606 -0.00211867 -1.90596e-18)
(0.00448965 -0.00230746 -6.81632e-19)
(0.0045358 -0.00250114 -2.82377e-22)
(0.00458403 -0.00269858 7.7503e-19)
(0.00463174 -0.00289701 -4.11166e-19)
(0.0046681 -0.00308766 -8.67209e-19)
(0.00465665 -0.00323968 4.55002e-19)
(0.00448955 -0.00325606 -4.76798e-19)
(0.00386338 -0.00290724 9.91431e-19)
(0.00206737 -0.00171581 8.60413e-19)
(0.00466476 -0.000932166 -4.48758e-19)
(0.00446145 -0.00112225 -1.49813e-18)
(0.00445466 -0.00113962 1.10778e-18)
(0.00443189 -0.00119122 0)
(0.00441348 -0.00126278 0)
(0.00439687 -0.00134803 7.41271e-19)
(0.00438144 -0.00144517 -8.68455e-22)
(0.00436756 -0.00155334 1.77504e-18)
(0.00435572 -0.00167215 -9.68669e-19)
(0.00434644 -0.00180134 -7.50931e-22)
(0.0043402 -0.00194064 1.13667e-18)
(0.00433745 -0.00208973 0)
(0.00433859 -0.00224817 6.58709e-19)
(0.00434391 -0.00241539 0)
(0.0043536 -0.00259063 7.52429e-19)
(0.00436732 -0.00277259 -1.19804e-18)
(0.00438288 -0.00295816 -2.47689e-22)
(0.00439061 -0.00313803 4.43757e-19)
(0.00435746 -0.00328079 0)
(0.0041853 -0.00328903 -4.83262e-19)
(0.00359333 -0.00293001 9.99638e-19)
(0.00191546 -0.00172151 -8.61583e-19)
(0.00441055 -0.0005864 2.28615e-18)
(0.00409164 -0.000769278 5.04209e-22)
(0.00410151 -0.000829208 1.68737e-18)
(0.00408283 -0.000923349 6.22263e-19)
(0.00407311 -0.00102752 -1.36982e-18)
(0.00406611 -0.0011415 0)
(0.00405976 -0.00126515 -1.65187e-18)
(0.0040538 -0.001398 9.01652e-19)
(0.00404828 -0.00153974 -9.8222e-19)
(0.00404342 -0.00169008 -1.06652e-18)
(0.00403954 -0.00184871 -5.76831e-19)
(0.00403701 -0.00201528 -6.21883e-19)
(0.0040362 -0.00218935 -2.00576e-18)
(0.00403744 -0.00237035 1.4295e-18)
(0.00404096 -0.00255754 0)
(0.00404656 -0.0027496 -4.04008e-19)
(0.00405205 -0.00294312 -8.52314e-19)
(0.00404793 -0.00312772 1.34275e-18)
(0.00400237 -0.00326963 4.67268e-19)
(0.0038236 -0.00326909 0)
(0.00325683 -0.00289413 7.53777e-19)
(0.00171469 -0.00167371 -1.93476e-18)
(0.00432665 -0.000645283 -1.39527e-18)
(0.00404434 -0.00082015 -1.03332e-18)
(0.00406212 -0.000888224 -5.73319e-19)
(0.00403261 -0.000981752 1.89644e-18)
(0.00400789 -0.00108174 -6.95501e-19)
(0.00398424 -0.00119025 1.5313e-18)
(0.00396048 -0.00130784 7.93186e-22)
(0.00393665 -0.00143448 -1.8321e-18)
(0.00391288 -0.00157005 9.98647e-19)
(0.00388941 -0.0017144 0)
(0.00386658 -0.00186727 5.86014e-19)
(0.00384474 -0.00202834 -6.30865e-19)
(0.00382429 -0.00219718 6.76638e-19)
(0.00380559 -0.00237322 7.23496e-19)
(0.00378889 -0.00255569 7.70154e-19)
(0.00377397 -0.00274315 -8.1552e-19)
(0.0037586 -0.00293187 0)
(0.00373334 -0.00311053 -9.02049e-19)
(0.00366772 -0.0032436 9.41204e-19)
(0.00347649 -0.00323036 -1.95392e-18)
(0.00293097 -0.0028411 1.00877e-18)
(0.00152082 -0.00161679 2.1452e-19)
(0.00421715 -0.000650869 -4.71219e-19)
(0.00395617 -0.000801908 -5.23115e-19)
(0.0039665 -0.000872452 0)
(0.00392925 -0.00096631 -1.28509e-18)
(0.00389471 -0.0010662 7.08017e-19)
(0.00385995 -0.00117388 -1.55584e-18)
(0.00382409 -0.00128998 8.51336e-19)
(0.00378725 -0.00141457 1.08798e-21)
(0.00374961 -0.00154767 0)
(0.00371147 -0.00168919 0)
(0.00367316 -0.00183898 0)
(0.0036351 -0.00199675 0)
(0.00359773 -0.00216213 6.85303e-19)
(0.00356147 -0.00233462 -7.31451e-19)
(0.00352663 -0.00251345 -7.77857e-19)
(0.00349303 -0.00269713 1.23404e-18)
(0.00345845 -0.00288165 0)
(0.00341374 -0.00305491 4.53671e-19)
(0.00333019 -0.00318013 1.65621e-18)
(0.00312987 -0.00315675 -9.80872e-19)
(0.00261038 -0.00275974 2.52997e-19)
(0.00133416 -0.00154754 0)
(0.00411363 -0.000644957 1.03061e-21)
(0.00387254 -0.0007787 1.59667e-18)
(0.00387122 -0.000849389 5.90013e-19)
(0.00382575 -0.000940705 -6.511e-19)
(0.00378105 -0.0010379 0)
(0.003735 -0.00114245 7.8896e-19)
(0.00368691 -0.00125494 -1.72726e-18)
(0.003637 -0.00137552 2.35786e-18)
(0.00358549 -0.0015043 -5.12807e-19)
(0.00353269 -0.00164124 0)
(0.00347898 -0.00178624 1.20163e-18)
(0.00342483 -0.00193909 -6.46266e-19)
(0.0033707 -0.00209947 3.46025e-19)
(0.00331708 -0.00226691 0)
(0.00326434 -0.00244065 3.92069e-19)
(0.00321234 -0.00261916 4.1453e-19)
(0.00315896 -0.00279816 4.36132e-19)
(0.00309556 -0.00296497 -1.3696e-18)
(0.00299567 -0.00308211 -2.89188e-22)
(0.00278941 -0.00305046 2.4586e-19)
(0.00230043 -0.00265224 0)
(0.0011579 -0.00146814 -2.12645e-19)
(0.0040134 -0.000628561 4.85886e-19)
(0.00379173 -0.000746193 -5.40633e-19)
(0.00377742 -0.000815262 -1.02314e-22)
(0.00372369 -0.000902274 6.59931e-19)
(0.00366905 -0.000995067 0)
(0.00361204 -0.00109481 7.99344e-19)
(0.00355208 -0.00120204 -8.74344e-19)
(0.00348943 -0.00131698 9.5464e-19)
(0.00342436 -0.00143975 -1.55796e-18)
(0.00335718 -0.00157042 1.12464e-18)
(0.00328834 -0.00170894 0)
(0.0032183 -0.00185517 -6.53238e-19)
(0.00314762 -0.00200886 -3.49705e-19)
(0.00307683 -0.0021696 0)
(0.00300638 -0.00233667 -1.18634e-18)
(0.00293621 -0.00250847 8.34836e-19)
(0.00286442 -0.00268059 4.38513e-19)
(0.00278305 -0.00283995 -6.87904e-19)
(0.00266835 -0.00294908 -2.38567e-19)
(0.002459 -0.00291162 -2.46731e-19)
(0.00200398 -0.00251952 0)
(0.00099303 -0.00137931 -6.3556e-19)
(0.00391664 -0.000600375 0)
(0.00371422 -0.000702058 5.45986e-19)
(0.00368671 -0.000768077 0)
(0.00362485 -0.000849349 0)
(0.0035607 -0.000936217 0)
(0.00349322 -0.00102961 8.07821e-19)
(0.00342194 -0.00113003 -8.85039e-19)
(0.00334712 -0.00123772 1.92969e-18)
(0.00326901 -0.00135287 -1.04876e-18)
(0.00318797 -0.0014756 -1.13669e-18)
(0.00310444 -0.00160596 1.83879e-18)
(0.00301894 -0.00174389 -3.29324e-19)
(0.00293206 -0.00188922 7.04869e-19)
(0.00284442 -0.00204163 -7.50503e-19)
(0.00275655 -0.00220045 3.97726e-19)
(0.00266852 -0.0023641 0)
(0.00257871 -0.00252807 0)
(0.00248012 -0.00267923 -1.38091e-18)
(0.002352 -0.0027808 9.56186e-19)
(0.0021419 -0.00274053 0)
(0.00172304 -0.00236234 0)
(0.000839921 -0.00128135 0)
(0.00382506 -0.000560538 4.97762e-19)
(0.00364176 -0.000646518 -1.10442e-18)
(0.00360155 -0.000708172 6.12072e-19)
(0.003532 -0.000782427 8.53399e-22)
(0.00345895 -0.000861954 -7.43426e-19)
(0.00338171 -0.000947512 -8.1699e-19)
(0.00329985 -0.00103957 4.47389e-19)
(0.00321359 -0.00113839 -1.46161e-18)
(0.00312318 -0.00124423 1.05936e-18)
(0.00302896 -0.00135729 -1.14607e-18)
(0.00293137 -0.0014777 -6.18287e-19)
(0.00283096 -0.00160552 3.31568e-19)
(0.00272835 -0.00174069 0)
(0.00262424 -0.00188299 0)
(0.00251925 -0.00203188 -4.00335e-19)
(0.00241363 -0.00218581 -1.05458e-18)
(0.00230613 -0.00234036 -2.21308e-19)
(0.00219088 -0.00248265 1.38486e-18)
(0.0020504 -0.00257732 -9.58267e-19)
(0.00184114 -0.00253756 7.41835e-19)
(0.00145935 -0.00218131 1.01527e-18)
(0.000698797 -0.00117441 -8.40568e-19)
(0.0037407 -0.000509572 -5.01905e-19)
(0.00357612 -0.000580333 6.44664e-22)
(0.00352421 -0.000636362 -6.17141e-19)
(0.00344766 -0.00070246 1.36407e-18)
(0.00336661 -0.000773354 -3.75117e-19)
(0.00328053 -0.000849678 0)
(0.00318907 -0.000931865 4.50938e-19)
(0.00309236 -0.00102022 -1.47443e-18)
(0.00299063 -0.00111505 1.06719e-18)
(0.00288416 -0.00121664 2.88705e-19)
(0.00277338 -0.00132522 0)
(0.00265881 -0.00144097 0)
(0.0025411 -0.00156399 0)
(0.00242099 -0.00169421 -7.59619e-19)
(0.00229921 -0.00183125 1.60803e-18)
(0.00217621 -0.00197372 2.12043e-19)
(0.00205121 -0.00211744 2.22191e-19)
(0.00191958 -0.00225013 -1.15681e-18)
(0.00176731 -0.00233864 0)
(0.0015596 -0.00230289 2.47534e-19)
(0.0012144 -0.00197667 0)
(0.000569816 -0.0010584 8.37347e-19)
(0.00366554 -0.000448434 -5.06624e-19)
(0.00351892 -0.000504749 4.0614e-22)
(0.00345668 -0.000553974 0)
(0.00337412 -0.000610916 -6.87854e-19)
(0.00328617 -0.000672025 -7.569e-19)
(0.00319246 -0.000737839 0)
(0.00309265 -0.000808759 0)
(0.00298679 -0.000885115 2.47762e-19)
(0.00287502 -0.000967256 0)
(0.00275756 -0.00105553 5.81377e-19)
(0.00263475 -0.0011503 -3.13101e-19)
(0.00250708 -0.00125187 0)
(0.00237515 -0.00136051 8.97105e-19)
(0.0022397 -0.00147637 -5.72084e-19)
(0.00210155 -0.00159929 2.01711e-19)
(0.00196134 -0.0017282 8.49755e-19)
(0.00181881 -0.00185934 -8.89773e-19)
(0.00167072 -0.00198148 9.27142e-19)
(0.00150656 -0.00206446 -1.08063e-18)
(0.00130011 -0.00203618 0)
(0.00098958 -0.00174814 8.87893e-19)
(0.000453122 -0.000932937 1.04281e-19)
(0.00360137 -0.000378597 1.02188e-18)
(0.00347157 -0.000421523 6.2855e-22)
(0.00340068 -0.000462902 -6.27694e-19)
(0.0033133 -0.000509866 6.91985e-19)
(0.00321982 -0.000560226 3.81163e-19)
(0.00311994 -0.000614437 0)
(0.00301332 -0.000672855 4.57286e-19)
(0.00289992 -0.000735813 -4.97661e-19)
(0.00277977 -0.00080368 -8.11038e-19)
(0.00265298 -0.000876857 -5.45721e-22)
(0.00251977 -0.000955776 9.44167e-19)
(0.00238048 -0.00104089 -6.74861e-19)
(0.00223562 -0.00113266 5.40529e-19)
(0.00208586 -0.00123147 -1.91211e-19)
(0.00193199 -0.00133749 -2.02233e-19)
(0.00177481 -0.00145009 -8.51699e-19)
(0.00161456 -0.00156624 -1.11419e-19)
(0.00144944 -0.00167627 0)
(0.00127247 -0.00175385 7.34436e-23)
(0.00106568 -0.0017363 -1.23728e-19)
(0.000786333 -0.00149459 1.26808e-19)
(0.0003489 -0.000797211 -5.20337e-20)
(0.00354942 -0.000301539 0)
(0.00343493 -0.00033229 0)
(0.00335732 -0.000364931 0)
(0.00326648 -0.000401275 -6.96617e-19)
(0.003169 -0.000440129 3.8298e-19)
(0.00306462 -0.000481867 2.10115e-19)
(0.00295297 -0.000526787 2.29694e-19)
(0.00283395 -0.000575189 -2.50395e-19)
(0.00270744 -0.000627422 8.14654e-19)
(0.00257342 -0.000683886 -2.93666e-19)
(0.00243194 -0.000745045 0)
(0.00228315 -0.000811436 -6.77709e-19)
(0.00212733 -0.000883662 -2.97585e-22)
(0.00196494 -0.000962364 1.53575e-18)
(0.00179661 -0.00104808 -8.11468e-19)
(0.00162312 -0.00114077 1.06663e-19)
(0.00144509 -0.00123846 1.00463e-18)
(0.00126204 -0.00133367 -1.15991e-19)
(0.00107041 -0.00140498 -8.41453e-19)
(0.000860088 -0.00140074 1.23789e-19)
(0.000606453 -0.00121354 0)
(0.000257486 -0.000649775 -5.18545e-20)
(0.0035094 -0.000217187 2.585e-19)
(0.00340832 -0.000237197 -2.86218e-19)
(0.00332585 -0.000260603 0)
(0.00323276 -0.000286112 7.00085e-19)
(0.00313264 -0.000313172 -7.69925e-19)
(0.00302523 -0.000342064 2.10825e-19)
(0.00291021 -0.000372999 -2.30775e-19)
(0.00278736 -0.000406196 0)
(0.0026565 -0.00044192 6.81739e-19)
(0.00251748 -0.000480493 -1.03121e-18)
(0.00237015 -0.000522317 6.33986e-19)
(0.00221445 -0.000567902 0)
(0.00205037 -0.000617887 0)
(0.00187804 -0.000673052 6.73563e-19)
(0.00169772 -0.000734255 -8.13004e-19)
(0.00150989 -0.000802126 4.27393e-19)
(0.00131519 -0.000876064 -4.46897e-19)
(0.00111407 -0.000951466 1.16254e-19)
(0.000905898 -0.00101326 0)
(0.000687714 -0.00102306 0)
(0.000452224 -0.000898272 0)
(0.000179402 -0.000486618 2.5856e-20)
(0.00346591 -0.000159816 -1.29457e-19)
(0.00337351 -0.000171659 0)
(0.00328548 -0.000185854 -3.18456e-19)
(0.00318874 -0.00020048 7.02336e-19)
(0.00308473 -0.000215456 -7.72651e-19)
(0.00297326 -0.000231013 4.23406e-19)
(0.00285411 -0.000247275 -4.63162e-19)
(0.00272715 -0.000264358 5.03888e-19)
(0.00259224 -0.000282399 -2.05077e-19)
(0.00244924 -0.000301569 -7.3889e-20)
(0.00229801 -0.0003221 0)
(0.00213837 -0.000344308 -3.40615e-19)
(0.00197014 -0.000368636 3.63081e-19)
(0.00179312 -0.000395706 9.63802e-20)
(0.00160708 -0.000426348 0)
(0.00141191 -0.000461533 -1.06979e-19)
(0.00120765 -0.000501905 -2.79536e-20)
(0.000994776 -0.000546207 0)
(0.000774183 -0.000587245 -3.00653e-20)
(0.000548174 -0.00060323 -3.09261e-20)
(0.000324926 -0.000541949 0)
(0.000115435 -0.000300415 -2.58163e-20)
(0.00307551 3.31059e-05 -3.80553e-19)
(0.00297752 3.13887e-05 2.8028e-19)
(0.00287219 2.82636e-05 0)
(0.00276059 2.46596e-05 0)
(0.0026438 2.05075e-05 0)
(0.00252219 1.56821e-05 2.0484e-19)
(0.00239607 1.01307e-05 -2.23111e-19)
(0.00226575 3.81956e-06 -2.89092e-26)
(0.00213151 -3.27909e-06 3.28218e-19)
(0.00199359 -1.11942e-05 -3.53693e-19)
(0.00185218 -1.99649e-05 0)
(0.00170741 -2.96542e-05 3.87476e-26)
(0.0015593 -4.03717e-05 -3.46173e-19)
(0.00140769 -5.23118e-05 -1.36128e-22)
(0.00125224 -6.581e-05 7.74204e-19)
(0.00109229 -8.14046e-05 -4.06452e-19)
(0.00092686 -9.98257e-05 4.5139e-19)
(0.000754786 -0.000121673 -4.41663e-19)
(0.00057493 -0.000146252 -4.28405e-19)
(0.000388175 -0.000168268 4.99661e-19)
(0.00020782 -0.000169291 0)
(6.60893e-05 -0.000104238 0)
(0.00346696 2.85833e-05 -1.31442e-19)
(0.00332886 3.54418e-05 0)
(0.00319067 4.37848e-05 8.01478e-20)
(0.00304828 5.23906e-05 0)
(0.00290182 6.11955e-05 0)
(0.00275108 7.01963e-05 0)
(0.00259594 7.93678e-05 0)
(0.00243638 8.86839e-05 -6.25302e-20)
(0.00227244 9.81187e-05 6.77827e-20)
(0.0021043 0.000107646 7.30535e-20)
(0.00193218 0.000117239 -7.84458e-20)
(0.00175637 0.000126871 0)
(0.00157723 0.000136517 4.4687e-20)
(0.00139517 0.000146143 4.73789e-20)
(0.00121066 0.0001557 -9.99903e-20)
(0.00102424 0.000165061 1.05019e-19)
(0.000836673 0.000173872 -2.74278e-20)
(0.000649206 0.000181131 0)
(0.000463952 0.000184275 -5.8965e-20)
(0.000285724 0.000177399 6.06523e-20)
(0.0001313 0.000148352 6.20533e-20)
(3.33895e-05 7.57745e-05 -5.04942e-20)
(0.00348464 0.000240487 0)
(0.00334091 0.000249244 0)
(0.00320549 0.000262835 8.00905e-20)
(0.00306468 0.000278068 1.76187e-19)
(0.00291985 0.000294666 0)
(0.00277082 0.000312613 2.11197e-19)
(0.00261742 0.000331828 -3.45453e-19)
(0.00245963 0.000352228 5.62853e-19)
(0.00229752 0.000373733 -4.06254e-19)
(0.00213123 0.000396257 -1.45982e-19)
(0.00196099 0.000419713 2.3531e-19)
(0.0017871 0.000444009 8.38799e-20)
(0.0016099 0.000469044 -4.46786e-20)
(0.0014298 0.0004947 -4.73708e-20)
(0.00124727 0.000520787 0)
(0.00106281 0.000546874 -1.04968e-19)
(0.000877096 0.00057178 8.22637e-20)
(0.000691157 0.00059224 2.28043e-19)
(0.0005065 0.000599945 -2.35829e-19)
(0.000326555 0.000575794 -2.42567e-19)
(0.000165404 0.000480565 4.96366e-19)
(5.1147e-05 0.000245251 -4.03959e-19)
(0.00352145 0.000391466 2.67402e-22)
(0.00336738 0.000408521 0)
(0.00323788 0.000432045 -4.79448e-19)
(0.00310052 0.00045861 8.78942e-19)
(0.0029592 0.000487455 -5.78552e-19)
(0.00281378 0.000518525 -4.21465e-19)
(0.00266403 0.000551674 3.4485e-19)
(0.00250991 0.000586752 -3.74434e-19)
(0.00235151 0.000623613 -1.35036e-19)
(0.00218897 0.000662108 2.9155e-19)
(0.00202251 0.000702087 0)
(0.0018524 0.000743392 -8.37608e-20)
(0.00167901 0.000785856 -3.56792e-19)
(0.00150271 0.000829281 9.04917e-23)
(0.00132395 0.000873355 -9.97434e-20)
(0.00114317 0.000917369 5.24354e-19)
(0.000960896 0.000959364 4.93074e-19)
(0.000777683 0.000993913 -3.5922e-23)
(0.000593842 0.00100714 -4.71349e-19)
(0.000410015 0.000967046 0)
(0.000234862 0.000807667 0)
(8.72292e-05 0.000412557 1.51561e-19)
(0.00357499 0.000551211 2.60961e-19)
(0.00340555 0.000576783 0)
(0.00328496 0.000607951 -3.18405e-19)
(0.00315276 0.000643961 -7.0047e-19)
(0.00301672 0.000683222 9.60492e-19)
(0.0028767 0.000725647 -4.20291e-19)
(0.00273238 0.00077104 0)
(0.00258377 0.000819192 1.26083e-22)
(0.00243093 0.000869896 -8.07907e-19)
(0.002274 0.000922944 2.90797e-19)
(0.00211319 0.000978124 -3.12171e-19)
(0.00194878 0.00103522 5.01276e-19)
(0.0017811 0.00109399 0)
(0.00161053 0.00115416 0)
(0.00143746 0.00121531 -9.95552e-20)
(0.00126227 0.00127647 0)
(0.00108522 0.00133495 -1.09429e-19)
(0.000906225 0.00138329 0)
(0.000723811 0.00140231 -1.17679e-19)
(0.000534475 0.00134755 1.21102e-19)
(0.000338714 0.00112682 0)
(0.000141335 0.000576474 -3.03312e-19)
(0.00364349 0.000696189 -5.19531e-19)
(0.00345487 0.000732979 -5.74607e-19)
(0.0033459 0.000771232 3.17027e-19)
(0.00322053 0.000816498 -3.48441e-19)
(0.00309147 0.00086591 3.82189e-19)
(0.00295859 0.000919358 8.35954e-19)
(0.00282148 0.000976622 -3.32903e-22)
(0.00268014 0.00103744 2.47766e-19)
(0.00253466 0.00110154 -2.68003e-19)
(0.00238516 0.00116868 1.15764e-18)
(0.00223184 0.00123859 -1.24382e-18)
(0.00207498 0.00131098 1.16502e-18)
(0.00191487 0.00138557 0)
(0.00175188 0.001462 0)
(0.00158637 0.00153976 7.94836e-19)
(0.0014186 0.00161763 -1.04403e-18)
(0.00124855 0.00169231 0)
(0.00107526 0.00175447 -6.81363e-19)
(0.000894979 0.00178003 1.05793e-18)
(0.000698763 0.00171268 -6.05086e-19)
(0.000476232 0.00143472 0)
(0.000213241 0.00073567 -5.06144e-20)
(0.00372559 0.000826166 5.15414e-19)
(0.00351477 0.000876568 5.7127e-19)
(0.0034199 0.000920892 6.29357e-19)
(0.00330286 0.000974849 -3.46555e-19)
(0.00318234 0.00103379 -3.80047e-19)
(0.00305821 0.00109758 -8.31075e-19)
(0.00292993 0.00116602 4.53277e-19)
(0.00279753 0.00123878 -4.92319e-19)
(0.00266108 0.00131555 5.33541e-19)
(0.00252071 0.00139604 -2.87902e-19)
(0.00237662 0.00147992 -6.18404e-19)
(0.00222904 0.00156688 -3.31115e-19)
(0.00207828 0.00165655 1.05927e-18)
(0.00192465 0.00174855 7.49425e-19)
(0.00176847 0.00184224 -1.38557e-18)
(0.0016099 0.00193624 2.08297e-19)
(0.00144856 0.00202669 1.74172e-18)
(0.00128251 0.00210269 -6.79778e-19)
(0.00110524 0.00213571 0)
(0.000901199 0.00205845 0)
(0.000646426 0.00172862 0)
(0.000302696 0.000889171 4.0534e-19)
(0.00381913 0.000938641 -1.02274e-18)
(0.00358402 0.00100496 5.66793e-19)
(0.0035054 0.00105425 1.24924e-18)
(0.00339801 0.00111623 -6.94692e-22)
(0.00328747 0.00118394 -1.50758e-18)
(0.00317355 0.00125728 -3.80996e-22)
(0.00305559 0.00133604 4.4945e-19)
(0.00293364 0.00141986 0)
(0.00280779 0.00150841 0)
(0.00267815 0.00160135 5.71382e-19)
(0.00254489 0.00169832 3.07483e-19)
(0.00240825 0.00179895 3.29231e-19)
(0.0022685 0.00190284 -1.05346e-18)
(0.00212592 0.00200954 -3.72596e-19)
(0.00198079 0.00211836 -3.93812e-19)
(0.00183314 0.00222777 -2.07128e-19)
(0.00168222 0.00233351 0)
(0.001525 0.00242336 -2.25806e-19)
(0.00135191 0.002465 -1.17022e-18)
(0.00113967 0.00238111 1.25504e-23)
(0.000848108 0.00200594 9.89384e-19)
(0.000409457 0.00103614 -1.01457e-19)
(0.00392154 0.00103176 -5.06066e-19)
(0.00366097 0.00111594 -5.60469e-19)
(0.00360037 0.00116905 6.90331e-22)
(0.00350378 0.00123827 -6.79416e-19)
(0.00340446 0.00131387 7.47739e-19)
(0.00330204 0.00139579 4.07788e-19)
(0.00319574 0.00148388 -4.45746e-19)
(0.00308562 0.00157776 -9.68593e-19)
(0.00297178 0.00167705 2.0999e-18)
(0.00285432 0.0017814 -5.6765e-19)
(0.0027334 0.00189041 -1.21984e-18)
(0.00260923 0.00200367 6.53369e-19)