/*--------------------------------*- C++ -*----------------------------------*\
| =========                 |                                                 |
| \\      /  F ield         | foam-extend: Open Source CFD                    |
|  \\    /   O peration     | Version:  3.0                                   |
|   \\  /    A nd           | Web:         http://www.extend-project.de       |
|    \\/     M anipulation  |                                                 |
\*---------------------------------------------------------------------------*/
FoamFile
{
    version     2.0;
    format      ascii;
    class       volScalarField;
    location    "0.005";
    object      p;
}
// * * * * * * * * * * * * * * * * * * * * * * * * * * * * * * * * * * * * * //

dimensions      [0 2 -2 0 0 0 0];

internalField   nonuniform List<scalar> 
10470
(
6.91035
6.91133
6.91202
6.91273
6.91335
6.91392
6.91443
6.91489
6.91531
6.91567
6.916
6.9163
6.91656
6.91678
6.91698
6.91716
6.91731
6.91745
6.91756
6.91766
6.91776
6.91785
6.88585
6.88786
6.88914
6.89052
6.89171
6.89282
6.89382
6.89473
6.89555
6.8963
6.89697
6.89758
6.89813
6.89862
6.89906
6.89946
6.89981
6.90013
6.90042
6.90067
6.9009
6.90115
6.86147
6.86453
6.86639
6.86843
6.8702
6.87184
6.87333
6.87468
6.87592
6.87704
6.87805
6.87897
6.87981
6.88056
6.88125
6.88186
6.88242
6.88292
6.88338
6.88378
6.88416
6.88457
6.83729
6.84139
6.84383
6.84654
6.84888
6.85105
6.85302
6.85482
6.85646
6.85795
6.8593
6.86053
6.86165
6.86266
6.86358
6.86441
6.86517
6.86585
6.86647
6.86703
6.86755
6.86811
6.81336
6.81849
6.82151
6.82489
6.82779
6.83049
6.83294
6.83518
6.83722
6.83908
6.84077
6.8423
6.8437
6.84496
6.84611
6.84716
6.8481
6.84896
6.84974
6.85044
6.8511
6.85181
6.78973
6.7959
6.7995
6.80354
6.807
6.81022
6.81315
6.81583
6.81826
6.82048
6.8225
6.82433
6.826
6.82751
6.82888
6.83013
6.83126
6.83229
6.83323
6.83406
6.83485
6.8357
6.76646
6.77365
6.77782
6.78252
6.78655
6.79029
6.7937
6.7968
6.79963
6.8022
6.80454
6.80667
6.8086
6.81035
6.81194
6.81338
6.81469
6.81588
6.81696
6.81793
6.81884
6.81982
6.74359
6.75179
6.75654
6.7619
6.76648
6.77075
6.77462
6.77815
6.78137
6.78429
6.78695
6.78936
6.79154
6.79353
6.79533
6.79696
6.79844
6.79978
6.80099
6.80208
6.80309
6.8042
6.72115
6.73035
6.73569
6.74171
6.74684
6.75162
6.75597
6.75992
6.76352
6.76679
6.76976
6.77245
6.77488
6.77709
6.77909
6.7809
6.78253
6.78401
6.78535
6.78655
6.78766
6.78886
6.69918
6.70937
6.7153
6.72197
6.72767
6.73297
6.73778
6.74216
6.74614
6.74975
6.75302
6.75598
6.75866
6.76108
6.76327
6.76525
6.76703
6.76863
6.77008
6.77137
6.77257
6.77386
6.6777
6.68885
6.69538
6.70271
6.70897
6.71479
6.72007
6.72487
6.72923
6.73318
6.73676
6.73999
6.74291
6.74554
6.74791
6.75004
6.75195
6.75368
6.75522
6.7566
6.75785
6.75922
6.65676
6.66885
6.67605
6.68401
6.69086
6.6972
6.70295
6.70817
6.71291
6.71719
6.72106
6.72455
6.72769
6.73052
6.73306
6.73533
6.73737
6.73919
6.74082
6.74226
6.74356
6.74497
6.63629
6.64908
6.65698
6.66555
6.673
6.67989
6.68615
6.69182
6.69697
6.70161
6.7058
6.70957
6.71295
6.71598
6.71869
6.72111
6.72326
6.72518
6.72688
6.72837
6.7297
6.73114
6.61695
6.63042
6.63926
6.64838
6.65644
6.66381
6.67051
6.67657
6.68205
6.687
6.69144
6.69543
6.69901
6.7022
6.70504
6.70756
6.7098
6.71178
6.71352
6.71504
6.71637
6.71781
6.59701
6.60986
6.61982
6.62953
6.63838
6.64647
6.65383
6.6605
6.66653
6.67195
6.67682
6.68118
6.68507
6.68852
6.69158
6.69429
6.69666
6.69874
6.70056
6.70211
6.70346
6.70489
6.58447
6.59536
6.60645
6.61641
6.62557
6.63389
6.64145
6.64828
6.65443
6.65996
6.66491
6.66932
6.67325
6.67672
6.67977
6.68246
6.6848
6.68684
6.68861
6.69013
6.69142
6.69281
6.57679
6.5876
6.59885
6.60851
6.61743
6.62548
6.63276
6.63932
6.64522
6.6505
6.65522
6.6594
6.66311
6.66637
6.66923
6.67172
6.67388
6.67575
6.67735
6.67871
6.67986
6.68109
6.56755
6.57792
6.58915
6.59871
6.60762
6.61562
6.62286
6.62938
6.63522
6.64043
6.64507
6.64918
6.6528
6.65597
6.65874
6.66113
6.6632
6.66496
6.66646
6.66771
6.66877
6.66985
6.55884
6.56927
6.58046
6.58994
6.59876
6.60666
6.6138
6.62021
6.62595
6.63105
6.63559
6.63959
6.6431
6.64616
6.64882
6.65112
6.65308
6.65474
6.65614
6.65729
6.65825
6.6592
6.55023
6.56069
6.57178
6.58122
6.58999
6.59784
6.60493
6.61128
6.61695
6.622
6.62646
6.63039
6.63382
6.63681
6.63939
6.6416
6.64348
6.64506
6.64638
6.64745
6.64832
6.64917
6.54195
6.55252
6.56353
6.57295
6.58168
6.5895
6.59654
6.60284
6.60846
6.61345
6.61786
6.62172
6.6251
6.62802
6.63053
6.63267
6.63448
6.63599
6.63723
6.63823
6.63903
6.63978
6.53403
6.54474
6.55568
6.56511
6.57381
6.58161
6.58863
6.5949
6.60049
6.60545
6.60981
6.61363
6.61696
6.61983
6.62229
6.62437
6.62612
6.62756
6.62874
6.62968
6.63041
6.63107
6.52655
6.53742
6.5483
6.55776
6.56646
6.57425
6.58126
6.58753
6.5931
6.59804
6.60238
6.60617
6.60946
6.61229
6.61471
6.61674
6.61844
6.61983
6.62095
6.62182
6.6225
6.62308
6.51957
6.5306
6.54145
6.55095
6.55966
6.56748
6.5745
6.58077
6.58634
6.59127
6.5956
6.59938
6.60265
6.60546
6.60784
6.60983
6.61149
6.61283
6.61389
6.61471
6.61533
6.61583
6.51318
6.52438
6.53521
6.54476
6.5535
6.56134
6.56839
6.57468
6.58027
6.58521
6.58955
6.59332
6.59658
6.59938
6.60173
6.6037
6.60531
6.60661
6.60763
6.60839
6.60895
6.60937
6.50731
6.51869
6.52952
6.53915
6.54793
6.55583
6.56291
6.56924
6.57487
6.57984
6.5842
6.58799
6.59127
6.59406
6.59641
6.59836
6.59994
6.6012
6.60217
6.60288
6.60337
6.60372
6.5024
6.51392
6.52476
6.53445
6.54327
6.55121
6.55833
6.5647
6.57037
6.57537
6.57976
6.58358
6.58687
6.58967
6.59203
6.59396
6.59552
6.59674
6.59766
6.59831
6.59873
6.59898
6.4974
6.50912
6.52002
6.52982
6.53873
6.54676
6.55399
6.56045
6.56619
6.57128
6.57575
6.57964
6.583
6.58586
6.58825
6.59023
6.5918
6.59302
6.59391
6.59451
6.59485
6.595
6.49492
6.50673
6.51761
6.52743
6.53635
6.54439
6.55163
6.55811
6.56388
6.569
6.57349
6.57741
6.58079
6.58368
6.58609
6.58806
6.58962
6.59079
6.59161
6.59211
6.59231
6.59232
6.49
6.50199
6.51297
6.52296
6.53203
6.54024
6.54764
6.55428
6.56022
6.5655
6.57017
6.57427
6.57785
6.58093
6.58355
6.58575
6.58753
6.58891
6.58987
6.5904
6.59038
6.58968
7.38722
7.37565
7.36526
7.35601
7.34778
7.34049
7.33407
7.32845
7.32355
7.31932
7.31568
7.3126
7.31002
7.30788
7.30615
7.30478
7.30374
7.30299
7.30249
7.30221
7.30215
7.3023
7.38564
7.37416
7.36382
7.35462
7.34644
7.3392
7.33282
7.32723
7.32236
7.31815
7.31454
7.31148
7.30891
7.30679
7.30507
7.30372
7.30268
7.30194
7.30145
7.30118
7.30112
7.30127
7.38298
7.37162
7.36132
7.35218
7.34404
7.33683
7.33049
7.32492
7.32008
7.31589
7.3123
7.30925
7.3067
7.3046
7.30289
7.30155
7.30053
7.29979
7.29931
7.29905
7.299
7.29917
7.37875
7.36761
7.35739
7.34836
7.3403
7.33317
7.32688
7.32137
7.31658
7.31243
7.30888
7.30587
7.30335
7.30127
7.29959
7.29827
7.29726
7.29655
7.29608
7.29584
7.2958
7.29598
7.37325
7.36239
7.35226
7.34336
7.33539
7.32835
7.32214
7.31669
7.31196
7.30786
7.30435
7.30138
7.29889
7.29684
7.29519
7.2939
7.29292
7.29222
7.29178
7.29155
7.29153
7.29173
7.3665
7.35596
7.34594
7.33719
7.32934
7.3224
7.31627
7.31091
7.30623
7.30219
7.29874
7.29581
7.29336
7.29135
7.28973
7.28846
7.28751
7.28684
7.28642
7.28621
7.28621
7.28643
7.35863
7.34846
7.33854
7.32996
7.32223
7.31539
7.30936
7.30407
7.29947
7.29549
7.29208
7.2892
7.28679
7.28482
7.28323
7.28199
7.28107
7.28042
7.28002
7.27984
7.27986
7.2801
7.34975
7.33996
7.33016
7.32175
7.31413
7.30741
7.30147
7.29626
7.29172
7.2878
7.28445
7.28161
7.27924
7.2773
7.27574
7.27453
7.27363
7.27301
7.27263
7.27246
7.2725
7.27277
7.33999
7.33059
7.32089
7.31265
7.30515
7.29853
7.29268
7.28754
7.28306
7.27919
7.27588
7.27308
7.27075
7.26883
7.2673
7.26611
7.26523
7.26463
7.26427
7.26412
7.26418
7.26447
7.32946
7.32045
7.31083
7.30276
7.29536
7.28884
7.28306
7.27799
7.27356
7.26974
7.26646
7.26369
7.26138
7.25948
7.25797
7.25679
7.25593
7.25534
7.25499
7.25485
7.25491
7.25521
7.31832
7.30968
7.30014
7.29221
7.28491
7.27846
7.27274
7.26771
7.26333
7.25953
7.25627
7.25351
7.25121
7.24932
7.24781
7.24663
7.24577
7.24518
7.24483
7.24469
7.24475
7.24506
7.30666
7.29831
7.28882
7.28099
7.27377
7.26739
7.26172
7.25673
7.25237
7.24858
7.24534
7.24258
7.24027
7.23838
7.23686
7.23568
7.2348
7.2342
7.23384
7.23369
7.23374
7.23402
7.29476
7.28672
7.27737
7.26961
7.26244
7.25607
7.2504
7.24539
7.241
7.23718
7.2339
7.2311
7.22876
7.22682
7.22526
7.22404
7.22313
7.22249
7.22209
7.22191
7.22192
7.22217
7.28236
7.27404
7.26478
7.25704
7.24996
7.24366
7.23805
7.23308
7.22872
7.22492
7.22164
7.21883
7.21647
7.21451
7.21292
7.21166
7.21071
7.21003
7.2096
7.20937
7.20934
7.20953
7.27135
7.26303
7.25416
7.24625
7.23906
7.23258
7.22678
7.22163
7.21708
7.2131
7.20964
7.20667
7.20414
7.20203
7.2003
7.19892
7.19785
7.19705
7.19652
7.1962
7.19608
7.19619
7.25676
7.24625
7.23865
7.23106
7.22424
7.21805
7.21249
7.20754
7.20315
7.19929
7.19593
7.19303
7.19055
7.18847
7.18674
7.18535
7.18425
7.18342
7.18284
7.18248
7.18232
7.18238
7.2357
7.22483
7.21828
7.21126
7.2052
7.19969
7.19477
7.19038
7.18649
7.18307
7.18009
7.17751
7.1753
7.17343
7.17188
7.1706
7.16959
7.1688
7.16823
7.16784
7.16764
7.16761
7.2154
7.20517
7.19944
7.19295
7.18744
7.18237
7.17784
7.17379
7.17021
7.16704
7.16428
7.16188
7.15981
7.15805
7.15658
7.15536
7.15438
7.1536
7.15302
7.1526
7.15235
7.15223
7.19398
7.18441
7.1793
7.17337
7.16841
7.16384
7.15976
7.15612
7.15289
7.15004
7.14754
7.14536
7.14348
7.14187
7.14052
7.13938
7.13845
7.13771
7.13713
7.13671
7.13642
7.13623
7.17219
7.16349
7.15896
7.1536
7.14915
7.14504
7.14136
7.13808
7.13516
7.13258
7.13031
7.12833
7.12661
7.12514
7.12388
7.12283
7.12196
7.12124
7.12068
7.12025
7.11994
7.1197
7.14992
7.14208
7.13806
7.13327
7.12931
7.12564
7.12236
7.11943
7.11683
7.11452
7.11248
7.1107
7.10916
7.10782
7.10668
7.10571
7.1049
7.10423
7.10369
7.10326
7.10294
7.10268
7.12723
7.12027
7.11674
7.11252
7.10902
7.10578
7.10289
7.10031
7.098
7.09596
7.09415
7.09257
7.09119
7.08999
7.08896
7.08808
7.08734
7.08672
7.08621
7.08581
7.08549
7.08522
7.10414
7.09805
7.095
7.09133
7.0883
7.08549
7.08297
7.08072
7.07872
7.07693
7.07536
7.07397
7.07276
7.0717
7.07079
7.07001
7.06934
7.06878
7.06831
7.06794
7.06763
7.06736
7.0807
7.07548
7.07289
7.06977
7.06719
7.06479
7.06266
7.06074
7.05903
7.0575
7.05615
7.05497
7.05392
7.05301
7.05222
7.05154
7.05095
7.05046
7.05004
7.0497
7.04942
7.04917
7.05693
7.05258
7.05045
7.04787
7.04574
7.04376
7.04199
7.0404
7.03899
7.03772
7.0366
7.03561
7.03474
7.03398
7.03331
7.03274
7.03224
7.03182
7.03146
7.03116
7.03091
7.03068
7.03288
7.0294
7.02773
7.02569
7.024
7.02244
7.02104
7.01978
7.01866
7.01765
7.01676
7.01597
7.01528
7.01467
7.01413
7.01366
7.01326
7.01291
7.01262
7.01237
7.01216
7.01196
7.00861
7.00599
7.00478
7.00327
7.00203
7.00088
6.99985
6.99892
6.99809
6.99735
6.99669
6.99611
6.99559
6.99513
6.99473
6.99438
6.99407
6.9938
6.99357
6.99338
6.99321
6.99305
6.98415
6.98241
6.98166
6.98068
6.97989
6.97916
6.97849
6.9779
6.97736
6.97689
6.97646
6.97608
6.97574
6.97544
6.97517
6.97493
6.97473
6.97455
6.97439
6.97425
6.97413
6.97401
6.95958
6.95871
6.95842
6.95798
6.95764
6.95732
6.95703
6.95676
6.95653
6.95631
6.95612
6.95594
6.95578
6.95564
6.95551
6.95539
6.95529
6.95519
6.95511
6.95503
6.95496
6.95489
6.93493
6.93495
6.93512
6.93522
6.93533
6.93542
6.93551
6.93558
6.93564
6.93568
6.93573
6.93576
6.93578
6.9358
6.93581
6.93581
6.93581
6.9358
6.9358
6.93579
6.93578
6.93577
6.93343
6.93343
6.93359
6.93368
6.93378
6.93387
6.93394
6.93401
6.93407
6.93411
6.93415
6.93418
6.9342
6.93422
6.93423
6.93423
6.93423
6.93422
6.93421
6.9342
6.93419
6.93418
6.95808
6.95719
6.95689
6.95644
6.95609
6.95576
6.95546
6.95519
6.95495
6.95474
6.95454
6.95436
6.9542
6.95406
6.95393
6.95381
6.9537
6.95361
6.95352
6.95345
6.95338
6.9533
6.98265
6.98088
6.98012
6.97913
6.97833
6.97759
6.97692
6.97632
6.97579
6.97531
6.97488
6.97449
6.97415
6.97385
6.97358
6.97335
6.97314
6.97296
6.9728
6.97266
6.97254
6.97242
7.00709
7.00445
7.00323
7.00171
7.00046
6.9993
6.99827
6.99734
6.99651
6.99577
6.99511
6.99452
6.994
6.99354
6.99314
6.99279
6.99248
6.99222
6.99199
6.99179
6.99162
6.99146
7.03134
7.02784
7.02616
7.02411
7.02241
7.02085
7.01945
7.01819
7.01706
7.01606
7.01517
7.01438
7.01369
7.01307
7.01254
7.01207
7.01167
7.01132
7.01103
7.01078
7.01057
7.01037
7.05536
7.05099
7.04886
7.04627
7.04413
7.04215
7.04039
7.0388
7.03738
7.03612
7.035
7.03402
7.03315
7.03239
7.03172
7.03115
7.03065
7.03023
7.02987
7.02957
7.02932
7.02909
7.07908
7.07385
7.07126
7.06814
7.06556
7.06317
7.06103
7.05912
7.05741
7.05589
7.05455
7.05336
7.05232
7.05141
7.05063
7.04995
7.04936
7.04887
7.04845
7.04811
7.04783
7.04757
7.10247
7.09638
7.09333
7.08967
7.08664
7.08384
7.08133
7.07909
7.07709
7.07532
7.07375
7.07236
7.07116
7.0701
7.06919
7.06841
7.06775
7.06719
7.06672
7.06635
7.06604
7.06577
7.12549
7.11854
7.11502
7.11082
7.10733
7.10411
7.10123
7.09866
7.09637
7.09433
7.09254
7.09096
7.08959
7.08839
7.08737
7.08649
7.08575
7.08513
7.08463
7.08422
7.08391
7.08363
7.1481
7.14029
7.13629
7.13153
7.12759
7.12394
7.12068
7.11777
7.11518
7.11288
7.11086
7.10909
7.10755
7.10622
7.10509
7.10412
7.10331
7.10265
7.10211
7.10169
7.10136
7.1011
7.17029
7.16163
7.15713
7.15181
7.14739
7.14331
7.13966
7.1364
7.1335
7.13094
7.12869
7.12672
7.12501
7.12355
7.1223
7.12125
7.12038
7.11967
7.11911
7.11868
7.11837
7.11814
7.19198
7.18247
7.17742
7.17153
7.16662
7.16208
7.15804
7.15443
7.15122
7.14839
7.14591
7.14375
7.14189
7.14029
7.13894
7.13782
7.13689
7.13615
7.13558
7.13515
7.13486
7.13468
7.2133
7.20314
7.19749
7.19106
7.1856
7.18058
7.17609
7.17208
7.16853
7.16539
7.16265
7.16027
7.15823
7.15648
7.15502
7.15381
7.15283
7.15206
7.15148
7.15107
7.15081
7.1507
7.23349
7.22272
7.21625
7.20931
7.20333
7.19788
7.193
7.18866
7.18481
7.18143
7.17848
7.17592
7.17373
7.17188
7.17034
7.16907
7.16807
7.16729
7.16672
7.16634
7.16613
7.1661
7.25441
7.24402
7.23653
7.22904
7.2223
7.21619
7.2107
7.2058
7.20146
7.19764
7.19432
7.19145
7.189
7.18693
7.18522
7.18384
7.18275
7.18193
7.18136
7.181
7.18084
7.1809
7.26892
7.26074
7.252
7.2442
7.2371
7.23071
7.22499
7.2199
7.2154
7.21147
7.20805
7.20511
7.20261
7.20053
7.19882
7.19745
7.19639
7.1956
7.19507
7.19476
7.19464
7.19475
7.27995
7.27179
7.26266
7.25504
7.24805
7.24184
7.2363
7.2314
7.22709
7.22334
7.22009
7.21732
7.21499
7.21305
7.21148
7.21024
7.2093
7.20863
7.2082
7.20798
7.20795
7.20813
7.29237
7.2845
7.27528
7.26765
7.26057
7.25429
7.24869
7.24375
7.23942
7.23565
7.2324
7.22964
7.22733
7.22542
7.22387
7.22267
7.22177
7.22114
7.22075
7.22057
7.22058
7.22083
7.30433
7.29615
7.28679
7.27909
7.27196
7.26567
7.26008
7.25516
7.25085
7.24711
7.24391
7.24118
7.23891
7.23704
7.23553
7.23437
7.2335
7.23291
7.23256
7.23241
7.23246
7.23275
7.31605
7.3076
7.29819
7.29038
7.28318
7.27682
7.27118
7.26622
7.26188
7.25813
7.25491
7.25219
7.24991
7.24805
7.24655
7.2454
7.24454
7.24396
7.24362
7.24348
7.24355
7.24385
7.3273
7.31847
7.30898
7.30103
7.29373
7.28729
7.28159
7.27658
7.27221
7.26843
7.26519
7.26245
7.26017
7.25829
7.2568
7.25564
7.25478
7.2542
7.25386
7.25372
7.25379
7.25409
7.33796
7.32874
7.31916
7.31103
7.30363
7.29709
7.29131
7.28623
7.28181
7.27798
7.27471
7.27194
7.26963
7.26773
7.26622
7.26505
7.26418
7.26358
7.26323
7.26308
7.26314
7.26343
7.34788
7.33826
7.32857
7.32027
7.31274
7.3061
7.30022
7.29507
7.29058
7.2867
7.28338
7.28057
7.27822
7.2763
7.27476
7.27356
7.27267
7.27206
7.27169
7.27152
7.27157
7.27184
7.35695
7.34692
7.33712
7.32863
7.32098
7.31422
7.30825
7.30301
7.29845
7.29451
7.29113
7.28828
7.28589
7.28393
7.28236
7.28113
7.28022
7.27958
7.27919
7.279
7.27903
7.27927
7.36502
7.35462
7.34469
7.33603
7.32826
7.32138
7.31531
7.30998
7.30535
7.30134
7.29791
7.29501
7.29258
7.29058
7.28898
7.28772
7.28678
7.28611
7.28569
7.28549
7.28549
7.28572
7.37201
7.36126
7.35121
7.34239
7.33448
7.32749
7.32133
7.31592
7.31122
7.30715
7.30367
7.30071
7.29824
7.29621
7.29457
7.29328
7.29231
7.29162
7.29118
7.29095
7.29094
7.29114
7.37776
7.36672
7.35656
7.34759
7.33958
7.33249
7.32624
7.32076
7.31599
7.31187
7.30834
7.30534
7.30283
7.30076
7.29909
7.29778
7.29678
7.29607
7.29561
7.29537
7.29533
7.29551
7.38226
7.37097
7.36072
7.35162
7.34352
7.33634
7.33002
7.32448
7.31966
7.31548
7.31191
7.30887
7.30633
7.30423
7.30254
7.3012
7.30018
7.29945
7.29897
7.29871
7.29867
7.29883
7.38521
7.37376
7.36345
7.35428
7.34612
7.3389
7.33254
7.32696
7.3221
7.3179
7.3143
7.31125
7.30868
7.30657
7.30486
7.3035
7.30247
7.30173
7.30124
7.30097
7.30092
7.30107
7.38708
7.37551
7.36514
7.35589
7.34767
7.34039
7.33398
7.32836
7.32347
7.31923
7.3156
7.31252
7.30994
7.30781
7.30608
7.30471
7.30367
7.30292
7.30242
7.30215
7.30208
7.30223
6.90884
6.88433
6.85993
6.83573
6.81179
6.78814
6.76486
6.74197
6.71952
6.69753
6.67605
6.65511
6.63464
6.61531
6.59536
6.58285
6.5752
6.56599
6.55731
6.54874
6.5405
6.53262
6.52519
6.51825
6.5119
6.50608
6.50122
6.4963
6.49385
6.48906
6.90981
6.88634
6.86299
6.83983
6.81692
6.79432
6.77205
6.75018
6.72874
6.70775
6.68722
6.66722
6.64745
6.6288
6.60824
6.59376
6.58604
6.57638
6.56776
6.55922
6.55108
6.54334
6.53605
6.52927
6.52309
6.51744
6.51272
6.50798
6.50561
6.50098
6.91049
6.88761
6.86484
6.84227
6.81995
6.79792
6.77623
6.75494
6.73408
6.71369
6.69377
6.67443
6.65537
6.63766
6.61822
6.60487
6.5973
6.58762
6.57895
6.57031
6.56209
6.55426
6.54692
6.5401
6.53389
6.52825
6.52352
6.51883
6.51643
6.5119
6.91119
6.88897
6.86688
6.84498
6.82332
6.80196
6.78094
6.76031
6.74011
6.72038
6.70111
6.68242
6.66395
6.6468
6.62794
6.61485
6.60697
6.59719
6.58844
6.57975
6.57151
6.56369
6.55637
6.54959
6.54343
6.53785
6.53318
6.52859
6.52621
6.52181
6.9118
6.89016
6.86864
6.84732
6.82622
6.80543
6.78497
6.7649
6.74526
6.72608
6.70738
6.68927
6.67142
6.65486
6.63681
6.62401
6.6159
6.6061
6.59726
6.58852
6.58023
6.57239
6.56505
6.55829
6.55215
6.54661
6.54196
6.53746
6.53508
6.53082
6.91236
6.89126
6.87028
6.84948
6.82892
6.80865
6.78872
6.76917
6.75005
6.73139
6.71321
6.69562
6.67832
6.66225
6.64491
6.63235
6.62395
6.61411
6.60517
6.59637
6.58805
6.58018
6.57284
6.56609
6.55997
6.55448
6.54987
6.54546
6.54308
6.53896
6.91287
6.89226
6.87177
6.85146
6.83138
6.81158
6.79212
6.77305
6.75439
6.73621
6.7185
6.70138
6.68458
6.66895
6.65228
6.63991
6.63124
6.62135
6.61231
6.60345
6.59508
6.58719
6.57984
6.57309
6.567
6.56154
6.55697
6.55264
6.55028
6.54631
6.91333
6.89316
6.87312
6.85325
6.83362
6.81426
6.79523
6.77658
6.75835
6.74059
6.72331
6.70661
6.69026
6.67502
6.65896
6.64674
6.6378
6.62787
6.61872
6.6098
6.60138
6.59346
6.5861
6.57935
6.57327
6.56785
6.56332
6.55907
6.55672
6.5529
6.91374
6.89398
6.87435
6.85489
6.83565
6.8167
6.79806
6.7798
6.76195
6.74457
6.72767
6.71135
6.69541
6.6805
6.66499
6.6529
6.6437
6.63371
6.62445
6.61547
6.607
6.59904
6.59166
6.58491
6.57885
6.57346
6.56896
6.5648
6.56247
6.5588
6.91411
6.89473
6.87547
6.85638
6.83751
6.81891
6.80063
6.78272
6.76522
6.74818
6.73162
6.71564
6.70006
6.68545
6.67041
6.65843
6.64899
6.63893
6.62956
6.62051
6.61198
6.60398
6.59659
6.58983
6.58378
6.57841
6.57395
6.56986
6.56756
6.56406
6.91443
6.8954
6.87648
6.85773
6.8392
6.82093
6.80297
6.78538
6.76819
6.75146
6.7352
6.71951
6.70425
6.6899
6.67529
6.66338
6.6537
6.64357
6.63409
6.62497
6.61638
6.60834
6.60092
6.59415
6.5881
6.58276
6.57832
6.57431
6.57204
6.56871
6.91472
6.89601
6.8774
6.85896
6.84073
6.82276
6.8051
6.78779
6.77088
6.75442
6.73843
6.723
6.70802
6.69389
6.67965
6.6678
6.65788
6.64767
6.63809
6.6289
6.62024
6.61216
6.60471
6.59793
6.59187
6.58655
6.58213
6.57819
6.57595
6.57279
6.91498
6.89655
6.87824
6.86008
6.84213
6.82443
6.80703
6.78998
6.77332
6.7571
6.74135
6.72614
6.7114
6.69747
6.68353
6.67172
6.66159
6.65129
6.6416
6.63233
6.62361
6.61548
6.60799
6.60119
6.59513
6.58981
6.58541
6.58154
6.57932
6.57635
6.91521
6.89704
6.87899
6.86109
6.84339
6.82594
6.80878
6.79196
6.77553
6.75952
6.74398
6.72897
6.71443
6.70066
6.68699
6.67519
6.66485
6.65446
6.64466
6.63532
6.62653
6.61835
6.61082
6.60399
6.59791
6.59259
6.58821
6.58439
6.5822
6.57943
6.91541
6.89749
6.87967
6.86201
6.84454
6.82731
6.81037
6.79376
6.77753
6.76171
6.74635
6.73151
6.71714
6.7035
6.69005
6.67825
6.66771
6.65722
6.64732
6.63789
6.62904
6.62081
6.61323
6.60637
6.60027
6.59494
6.59056
6.58678
6.5846
6.58205
6.91558
6.89788
6.88029
6.86284
6.84558
6.82856
6.81182
6.79539
6.77934
6.76369
6.74848
6.73378
6.71956
6.70602
6.69275
6.68093
6.6702
6.65962
6.64961
6.6401
6.63118
6.62289
6.61526
6.60836
6.60223
6.59688
6.59249
6.58875
6.58657
6.58424
6.91573
6.89824
6.88084
6.86359
6.84653
6.82969
6.81313
6.79687
6.78097
6.76547
6.7504
6.73582
6.72171
6.70826
6.69513
6.68327
6.67236
6.66168
6.65157
6.64198
6.63299
6.62463
6.61696
6.61001
6.60384
6.59847
6.59405
6.59032
6.58813
6.58603
6.91587
6.89855
6.88135
6.86428
6.84739
6.83072
6.81431
6.79821
6.78245
6.76707
6.75212
6.73764
6.72363
6.71024
6.69721
6.68531
6.67422
6.66344
6.65323
6.64356
6.63449
6.62607
6.61835
6.61135
6.60513
6.59972
6.59527
6.59154
6.58931
6.58741
6.91598
6.89884
6.8818
6.8649
6.84817
6.83165
6.81539
6.79942
6.78379
6.76852
6.75367
6.73927
6.72533
6.71198
6.69902
6.68708
6.67583
6.66494
6.65463
6.64487
6.63574
6.62725
6.61946
6.61241
6.60615
6.60069
6.59618
6.59243
6.59013
6.58837
6.91608
6.89909
6.88221
6.86545
6.84887
6.83249
6.81636
6.80051
6.78498
6.76981
6.75504
6.7407
6.72682
6.71349
6.70058
6.68859
6.67718
6.6662
6.65578
6.64594
6.63673
6.62818
6.62034
6.61323
6.60691
6.6014
6.59683
6.59303
6.59062
6.5889
6.91617
6.89932
6.88258
6.86597
6.84953
6.83328
6.81727
6.80153
6.78609
6.771
6.75629
6.742
6.72815
6.71483
6.70192
6.68989
6.67834
6.66725
6.65674
6.64682
6.63753
6.62892
6.62101
6.61385
6.60747
6.60189
6.59725
6.59337
6.59083
6.58889
6.91627
6.89957
6.88299
6.86653
6.85024
6.83413
6.81825
6.80263
6.7873
6.7723
6.75766
6.74341
6.72958
6.71626
6.70334
6.69127
6.67957
6.66833
6.65769
6.64766
6.63828
6.62958
6.62159
6.61435
6.6079
6.60224
6.59751
6.59352
6.59084
6.5882
7.25602
7.24947
7.24556
7.2411
7.23697
7.23301
7.22925
7.2257
7.22235
7.2192
7.21626
7.21352
7.21099
7.20867
7.20655
7.20464
7.20294
7.20145
7.20018
7.19913
7.19829
7.19768
7.19728
7.19717
7.23541
7.22812
7.22469
7.22017
7.21626
7.21246
7.2089
7.20554
7.20239
7.19945
7.1967
7.19415
7.19179
7.18964
7.18767
7.1859
7.18433
7.18296
7.18178
7.1808
7.18002
7.17945
7.17906
7.17893
7.21462
7.20719
7.20398
7.19951
7.19578
7.19213
7.18874
7.18555
7.18256
7.17978
7.17718
7.17478
7.17257
7.17055
7.16871
7.16705
7.16558
7.16429
7.16319
7.16227
7.16153
7.16098
7.16061
7.16047
7.19304
7.18579
7.18275
7.17842
7.17488
7.17141
7.1682
7.1652
7.1624
7.15979
7.15737
7.15513
7.15308
7.15119
7.14948
7.14794
7.14658
7.14538
7.14435
7.14349
7.1428
7.14228
7.14192
7.14177
7.1711
7.16417
7.16126
7.15714
7.1538
7.15053
7.14751
7.1447
7.14208
7.13965
7.1374
7.13532
7.13341
7.13166
7.13007
7.12864
7.12737
7.12626
7.1253
7.12449
7.12384
7.12335
7.123
7.12284
7.1487
7.1422
7.13944
7.13556
7.13244
7.12938
7.12658
7.12397
7.12154
7.11929
7.11721
7.11529
7.11352
7.11191
7.11044
7.10913
7.10795
7.10692
7.10603
7.10528
7.10467
7.1042
7.10388
7.1037
7.12591
7.11989
7.11731
7.11372
7.11082
7.108
7.10542
7.10302
7.10079
7.09872
7.09681
7.09505
7.09344
7.09196
7.09062
7.08941
7.08833
7.08738
7.08656
7.08587
7.0853
7.08486
7.08455
7.08436
7.10275
7.09726
7.09488
7.0916
7.08896
7.08639
7.08404
7.08185
7.07983
7.07795
7.07622
7.07462
7.07315
7.07181
7.07059
7.06949
7.06851
7.06765
7.0669
7.06626
7.06574
7.06532
7.06503
7.06484
7.07924
7.07433
7.07217
7.06923
7.06686
7.06455
7.06244
7.06048
7.05867
7.05698
7.05543
7.054
7.05268
7.05148
7.05038
7.04939
7.04851
7.04773
7.04705
7.04647
7.04599
7.04561
7.04534
7.04516
7.05541
7.05112
7.04921
7.04662
7.04453
7.0425
7.04064
7.03891
7.03731
7.03583
7.03446
7.03319
7.03203
7.03096
7.02999
7.02911
7.02833
7.02763
7.02703
7.02651
7.02608
7.02574
7.0255
7.02532
7.0313
7.02767
7.02601
7.0238
7.022
7.02025
7.01865
7.01716
7.01578
7.0145
7.01331
7.01221
7.0112
7.01028
7.00943
7.00867
7.00799
7.00738
7.00685
7.0064
7.00602
7.00572
7.0055
7.00534
7.00695
7.00401
7.00262
7.00079
6.99929
6.99784
6.9965
6.99525
6.99409
6.99301
6.99201
6.99108
6.99023
6.98944
6.98873
6.98808
6.9875
6.98698
6.98653
6.98614
6.98583
6.98557
6.98538
6.98524
6.98242
6.98019
6.97906
6.97763
6.97644
6.97528
6.97421
6.9732
6.97226
6.97139
6.97058
6.96982
6.96912
6.96848
6.96789
6.96736
6.96688
6.96646
6.96609
6.96577
6.96551
6.9653
6.96515
6.96504
6.95777
6.95625
6.9554
6.95437
6.95348
6.95262
6.95181
6.95105
6.95034
6.94967
6.94904
6.94846
6.94791
6.94741
6.94695
6.94654
6.94616
6.94583
6.94554
6.9453
6.9451
6.94493
6.94482
6.94474
6.93304
6.93225
6.93167
6.93104
6.93046
6.92989
6.92935
6.92883
6.92834
6.92787
6.92743
6.92702
6.92663
6.92627
6.92594
6.92564
6.92537
6.92513
6.92492
6.92475
6.92461
6.9245
6.92442
6.92438
6.90832
6.90826
6.90794
6.90771
6.90743
6.90715
6.90687
6.90659
6.90632
6.90605
6.90579
6.90554
6.9053
6.90508
6.90487
6.90468
6.90452
6.90437
6.90424
6.90414
6.90405
6.904
6.90396
6.90395
6.88364
6.88431
6.88425
6.88441
6.88443
6.88444
6.88441
6.88436
6.8843
6.88422
6.88414
6.88405
6.88396
6.88387
6.88379
6.88371
6.88364
6.88358
6.88353
6.8835
6.88347
6.88346
6.88347
6.88349
6.85908
6.86047
6.86065
6.86119
6.86149
6.86178
6.862
6.86218
6.86232
6.86243
6.86252
6.86259
6.86264
6.86268
6.86271
6.86274
6.86276
6.86279
6.86281
6.86284
6.86287
6.86291
6.86295
6.86301
6.8347
6.83679
6.83719
6.8381
6.83867
6.83923
6.83968
6.84008
6.84042
6.84071
6.84096
6.84118
6.84136
6.84153
6.84167
6.8418
6.84191
6.84201
6.84211
6.8422
6.84228
6.84236
6.84243
6.84251
6.81056
6.81331
6.81393
6.81518
6.81601
6.81682
6.8175
6.8181
6.81863
6.81909
6.81949
6.81985
6.82016
6.82044
6.82069
6.8209
6.8211
6.82128
6.82143
6.82158
6.8217
6.82182
6.82192
6.82202
6.78671
6.79009
6.7909
6.79248
6.79355
6.79459
6.79548
6.79627
6.79697
6.79759
6.79813
6.79862
6.79905
6.79944
6.79978
6.80008
6.80036
6.8006
6.80081
6.801
6.80117
6.80132
6.80144
6.80156
6.76321
6.76716
6.76813
6.77001
6.7713
6.77255
6.77364
6.77461
6.77547
6.77623
6.77691
6.77752
6.77806
6.77854
6.77897
6.77935
6.77969
6.77999
6.78025
6.78049
6.78069
6.78086
6.781
6.78112
6.74008
6.74456
6.74567
6.74781
6.74929
6.75074
6.752
6.75313
6.75414
6.75503
6.75583
6.75655
6.75719
6.75776
6.75826
6.75871
6.75911
6.75946
6.75977
6.76004
6.76027
6.76046
6.76061
6.76073
6.71736
6.7223
6.72352
6.7259
6.72755
6.72917
6.73058
6.73185
6.73299
6.734
6.73491
6.73572
6.73645
6.7371
6.73767
6.73818
6.73863
6.73903
6.73937
6.73967
6.73992
6.74012
6.74028
6.7404
6.69509
6.70043
6.70172
6.70429
6.70608
6.70785
6.70939
6.71078
6.71203
6.71315
6.71415
6.71505
6.71585
6.71657
6.71721
6.71777
6.71826
6.71869
6.71907
6.71938
6.71965
6.71986
6.72002
6.72013
6.67327
6.67893
6.68027
6.68299
6.68489
6.68677
6.68843
6.68992
6.69127
6.69248
6.69356
6.69453
6.6954
6.69617
6.69686
6.69747
6.698
6.69846
6.69886
6.69919
6.69946
6.69968
6.69984
6.69992
6.65196
6.65785
6.65921
6.66202
6.66401
6.66598
6.66772
6.6693
6.67072
6.672
6.67315
6.67418
6.6751
6.67592
6.67665
6.67729
6.67785
6.67833
6.67875
6.67909
6.67937
6.67958
6.67974
6.6798
6.6311
6.63705
6.63846
6.64128
6.64334
6.64537
6.64718
6.64882
6.65031
6.65165
6.65286
6.65395
6.65492
6.65578
6.65655
6.65722
6.6578
6.65831
6.65873
6.65908
6.65936
6.65957
6.65972
6.65976
6.61109
6.61674
6.61826
6.621
6.62311
6.62516
6.627
6.62868
6.6302
6.63158
6.63282
6.63394
6.63493
6.63582
6.6366
6.63729
6.63789
6.6384
6.63883
6.63918
6.63946
6.63966
6.6398
6.63981
6.59144
6.59621
6.59809
6.60062
6.60281
6.60487
6.60676
6.60849
6.61006
6.61149
6.61278
6.61394
6.61497
6.6159
6.61671
6.61742
6.61804
6.61857
6.61901
6.61936
6.61964
6.61983
6.61995
6.61993
7.4854
7.48213
7.47785
7.47179
7.4647
7.45654
7.44751
7.43768
7.42715
7.41597
7.40422
7.39193
7.37915
7.36592
7.35227
7.33823
7.32382
7.30907
7.294
7.27862
7.26296
7.24702
7.23083
7.21438
7.48766
7.48346
7.479
7.4727
7.46548
7.45722
7.44811
7.43822
7.42763
7.41641
7.40462
7.3923
7.37949
7.36624
7.35257
7.33851
7.32408
7.30932
7.29423
7.27884
7.26316
7.24722
7.23101
7.21455
7.49182
7.48639
7.4816
7.47484
7.46736
7.45886
7.44957
7.43953
7.42881
7.41749
7.4056
7.3932
7.38033
7.36702
7.35329
7.33918
7.32472
7.30992
7.29479
7.27937
7.26367
7.24769
7.23146
7.21499
7.49736
7.49055
7.48533
7.47799
7.47013
7.46131
7.45175
7.44149
7.43059
7.41911
7.40709
7.39457
7.38159
7.36819
7.35439
7.34021
7.32568
7.31082
7.29565
7.28018
7.26443
7.24842
7.23214
7.21564
7.50402
7.49579
7.49007
7.48206
7.47375
7.46452
7.45464
7.44409
7.43296
7.42127
7.40907
7.3964
7.38329
7.36977
7.35586
7.34159
7.32698
7.31204
7.2968
7.28127
7.26547
7.2494
7.23307
7.21653
7.51159
7.50195
7.49568
7.48695
7.47813
7.46844
7.45817
7.4473
7.43588
7.42395
7.41153
7.39868
7.3854
7.37173
7.3577
7.34331
7.3286
7.31357
7.29825
7.28264
7.26676
7.25063
7.23424
7.21765
7.51992
7.50886
7.50203
7.49255
7.48319
7.47299
7.4623
7.45105
7.43931
7.4271
7.41444
7.40137
7.3879
7.37407
7.35988
7.34536
7.33053
7.31539
7.29997
7.28428
7.26832
7.25212
7.23565
7.21899
7.52886
7.51643
7.50901
7.49877
7.48883
7.47811
7.46695
7.45531
7.44322
7.4307
7.41777
7.40446
7.39078
7.37675
7.3624
7.34773
7.33276
7.31751
7.30198
7.28618
7.27013
7.25384
7.23729
7.22057
7.53832
7.52453
7.51653
7.50552
7.49499
7.48372
7.47209
7.46002
7.44755
7.4347
7.42148
7.40791
7.394
7.37977
7.36523
7.3504
7.33528
7.31989
7.30424
7.28834
7.27218
7.2558
7.23916
7.22237
7.54819
7.53308
7.52451
7.51272
7.5016
7.48976
7.47764
7.46513
7.45228
7.43908
7.42555
7.4117
7.39754
7.38309
7.36836
7.35335
7.33808
7.32255
7.30676
7.29074
7.27448
7.258
7.24125
7.22438
7.55839
7.542
7.53285
7.5203
7.50858
7.49618
7.48355
7.4706
7.45734
7.44378
7.42993
7.41579
7.40138
7.3867
7.37176
7.35657
7.34113
7.32545
7.30953
7.29338
7.277
7.26042
7.24357
7.22662
7.56884
7.5512
7.54149
7.52819
7.51587
7.50291
7.48978
7.47637
7.4627
7.44878
7.43459
7.42016
7.40549
7.39057
7.37542
7.36003
7.34442
7.32858
7.31253
7.29625
7.27975
7.26306
7.2461
7.22907
7.57947
7.56063
7.55036
7.53633
7.52343
7.5099
7.49627
7.48241
7.46833
7.45403
7.43951
7.42478
7.40983
7.39467
7.3793
7.36372
7.34794
7.33194
7.31574
7.29934
7.28272
7.26592
7.24884
7.23173
7.59022
7.57022
7.55941
7.54466
7.53118
7.5171
7.50297
7.48865
7.47416
7.45949
7.44464
7.42961
7.41439
7.39899
7.3834
7.36762
7.35166
7.33551
7.31916
7.30263
7.28589
7.26898