/*--------------------------------*- C++ -*----------------------------------*\
| =========                 |                                                 |
| \\      /  F ield         | foam-extend: Open Source CFD                    |
|  \\    /   O peration     | Version:  3.0                                   |
|   \\  /    A nd           | Web:         http://www.extend-project.de       |
|    \\/     M anipulation  |                                                 |
\*---------------------------------------------------------------------------*/
FoamFile
{
    version     2.0;
    format      ascii;
    class       surfaceScalarField;
    location    "0.005";
    object      phi;
}
// * * * * * * * * * * * * * * * * * * * * * * * * * * * * * * * * * * * * * //

dimensions      [0 3 -1 0 0 0 0];

internalField   nonuniform List<scalar> 
20613
(
-7.96057e-08
2.44996e-06
-2.45677e-06
8.64147e-08
-7.21485e-08
2.31706e-06
-2.32452e-06
-6.57946e-08
2.21513e-06
-2.22148e-06
-5.98022e-08
2.11362e-06
-2.11961e-06
-5.42941e-08
2.01896e-06
-2.02447e-06
-4.91826e-08
1.92907e-06
-1.93419e-06
-4.44366e-08
1.84381e-06
-1.84855e-06
-4.00219e-08
1.76275e-06
-1.76717e-06
-3.59094e-08
1.68555e-06
-1.68966e-06
-3.20735e-08
1.61188e-06
-1.61572e-06
-2.8492e-08
1.54147e-06
-1.54505e-06
-2.51464e-08
1.47405e-06
-1.4774e-06
-2.20216e-08
1.40939e-06
-1.41252e-06
-1.91054e-08
1.34725e-06
-1.35016e-06
-1.63871e-08
1.28726e-06
-1.28998e-06
-1.38519e-08
1.22858e-06
-1.23111e-06
-1.14717e-08
1.16883e-06
-1.17121e-06
-9.19134e-09
1.1019e-06
-1.10418e-06
-6.92615e-09
1.0142e-06
-1.01646e-06
-4.5834e-09
8.80468e-07
-8.82811e-07
-2.15181e-09
6.61341e-07
-6.63772e-07
3.05271e-07
-3.07423e-07
-8.01685e-08
2.44225e-06
8.78737e-08
-7.10614e-08
2.30795e-06
-6.33787e-08
2.20744e-06
-5.61198e-08
2.10636e-06
-4.95224e-08
2.01236e-06
-4.34759e-08
1.92303e-06
-3.7954e-08
1.83829e-06
-3.29198e-08
1.75772e-06
-2.83399e-08
1.68097e-06
-2.41837e-08
1.60773e-06
-2.04225e-08
1.53771e-06
-1.70294e-08
1.47066e-06
-1.39788e-08
1.40634e-06
-1.1247e-08
1.34451e-06
-8.81239e-09
1.28482e-06
-6.65961e-09
1.22642e-06
-4.78483e-09
1.16696e-06
-3.20158e-09
1.10031e-06
-1.93585e-09
1.01293e-06
-9.96288e-10
8.79529e-07
-3.4568e-10
6.6069e-07
3.04925e-07
-1.22622e-07
2.43059e-06
1.34284e-07
-1.08878e-07
2.29421e-06
-9.72391e-08
2.1958e-06
-8.6163e-08
2.09528e-06
-7.60484e-08
2.00225e-06
-6.67336e-08
1.91371e-06
-5.81904e-08
1.82974e-06
-5.03697e-08
1.7499e-06
-4.32273e-08
1.67383e-06
-3.6722e-08
1.60122e-06
-3.08144e-08
1.5318e-06
-2.54667e-08
1.46531e-06
-2.0643e-08
1.40152e-06
-1.63084e-08
1.34018e-06
-1.24332e-08
1.28095e-06
-8.99832e-09
1.22299e-06
-6.01182e-09
1.16397e-06
-3.52671e-09
1.09783e-06
-1.6424e-09
1.01105e-06
-4.49364e-10
8.78336e-07
5.38933e-11
6.60187e-07
3.04979e-07
-1.59927e-07
2.41547e-06
1.75044e-07
-1.41714e-07
2.276e-06
-1.26453e-07
2.18054e-06
-1.11882e-07
2.08071e-06
-9.85796e-08
1.98895e-06
-8.63138e-08
1.90145e-06
-7.5053e-08
1.81848e-06
-6.47352e-08
1.73958e-06
-5.53059e-08
1.6644e-06
-4.67143e-08
1.59263e-06
-3.89117e-08
1.524e-06
-3.18518e-08
1.45825e-06
-2.54894e-08
1.39515e-06
-1.97821e-08
1.33447e-06
-1.46942e-08
1.27586e-06
-1.02087e-08
1.2185e-06
-6.35117e-09
1.16011e-06
-3.21952e-09
1.0947e-06
-9.83516e-10
1.00881e-06
2.09952e-10
8.77143e-07
4.0753e-10
6.59989e-07
3.05387e-07
-1.88882e-07
2.39776e-06
2.06594e-07
-1.66793e-07
2.25391e-06
-1.48524e-07
2.16228e-06
-1.31011e-07
2.0632e-06
-1.15049e-07
1.97298e-06
-1.0033e-07
1.88673e-06
-8.68228e-08
1.80497e-06
-7.44539e-08
1.72721e-06
-6.31612e-08
1.6531e-06
-5.28868e-08
1.58236e-06
-4.35754e-08
1.51469e-06
-3.51741e-08
1.44985e-06
-2.76315e-08
1.38761e-06
-2.08992e-08
1.32774e-06
-1.49381e-08
1.2699e-06
-9.73456e-09
1.2133e-06
-5.33368e-09
1.15571e-06
-1.87992e-09
1.09124e-06
3.84975e-10
1.00655e-06
1.26785e-09
8.7626e-07
8.96698e-10
6.6036e-07
3.06283e-07
-2.09969e-07
2.37824e-06
2.29491e-07
-1.84583e-07
2.22852e-06
-1.63906e-07
2.1416e-06
-1.43998e-07
2.04329e-06
-1.25894e-07
1.95488e-06
-1.09206e-07
1.87004e-06
-9.39053e-08
1.78967e-06
-7.99105e-08
1.71321e-06
-6.71539e-08
1.64035e-06
-5.55734e-08
1.57078e-06
-4.51099e-08
1.50423e-06
-3.57064e-08
1.44045e-06
-2.73078e-08
1.37921e-06
-1.98621e-08
1.32029e-06
-1.33281e-08
1.26337e-06
-7.69705e-09
1.20767e-06
-3.03566e-09
1.15105e-06
4.59946e-10
1.08775e-06
2.46985e-09
1.00454e-06
2.7515e-09
8.75978e-07
1.54231e-09
6.6157e-07
3.07826e-07
-2.23865e-07
2.35764e-06
2.4447e-07
-1.95777e-07
2.20043e-06
-1.73281e-07
2.1191e-06
-1.5152e-07
2.02153e-06
-1.31779e-07
1.93514e-06
-1.13586e-07
1.85185e-06
-9.69212e-08
1.77301e-06
-8.16957e-08
1.69799e-06
-6.78404e-08
1.62649e-06
-5.52925e-08
1.55823e-06
-4.39923e-08
1.49293e-06
-3.38823e-08
1.43034e-06
-2.49062e-08
1.37024e-06
-1.70108e-08
1.3124e-06
-1.0155e-08
1.25651e-06
-4.33615e-09
1.20185e-06
3.5524e-10
1.14636e-06
3.66688e-09
1.08443e-06
5.19073e-09
1.00301e-06
4.62626e-09
8.76542e-07
2.3374e-09
6.63858e-07
3.10163e-07
-2.31505e-07
2.33657e-06
2.52569e-07
-2.0132e-07
2.17025e-06
-1.77562e-07
2.09535e-06
-1.54479e-07
1.99845e-06
-1.33582e-07
1.91424e-06
-1.14322e-07
1.83259e-06
-9.66866e-08
1.75537e-06
-8.05855e-08
1.68189e-06
-6.59517e-08
1.61186e-06
-5.27257e-08
1.545e-06
-4.08515e-08
1.48105e-06
-3.02747e-08
1.41976e-06
-2.09413e-08
1.3609e-06
-1.27999e-08
1.30426e-06
-5.8117e-09
1.24952e-06
1.7915e-11
1.19602e-06
4.57362e-09
1.1418e-06
7.5433e-09
1.08147e-06
8.4196e-09
1.00214e-06
6.82782e-09
8.78134e-07
3.26396e-09
6.67422e-07
3.13427e-07
-2.33883e-07
2.3155e-06
2.54955e-07
-2.02267e-07
2.13863e-06
-1.77753e-07
2.07083e-06
-1.53891e-07
1.97458e-06
-1.32297e-07
1.89265e-06
-1.12383e-07
1.81267e-06
-9.41375e-08
1.73713e-06
-7.74743e-08
1.66522e-06
-6.23342e-08
1.59672e-06
-4.86663e-08
1.53133e-06
-3.64232e-08
1.46881e-06
-2.55581e-08
1.40889e-06
-1.60236e-08
1.35137e-06
-7.77334e-09
1.29601e-06
-7.73748e-10
1.24252e-06
4.96079e-09
1.19029e-06
9.28965e-09
1.13747e-06
1.18383e-08
1.07892e-06
1.19888e-08
1.00199e-06
9.26909e-09
8.80853e-07
4.29634e-09
6.72395e-07
3.17723e-07
-2.31851e-07
2.29453e-06
2.5282e-07
-1.99662e-07
2.10644e-06
-1.74794e-07
2.04596e-06
-1.50723e-07
1.95051e-06
-1.2887e-07
1.8708e-06
-1.087e-07
1.7925e-06
-9.01839e-08
1.71861e-06
-7.32452e-08
1.64829e-06
-5.78374e-08
1.58131e-06
-4.39234e-08
1.51742e-06
-3.14697e-08
1.45635e-06
-2.04424e-08
1.39787e-06
-1.08051e-08
1.34173e-06
-2.52083e-09
1.28772e-06
4.43607e-09
1.23557e-06
1.00408e-08
1.18468e-06
1.41284e-08
1.13339e-06
1.62619e-08
1.07678e-06
1.57021e-08
1.00255e-06
1.18478e-08
8.84707e-07
5.40596e-09
6.78836e-07
3.23129e-07
-2.25773e-07
2.27299e-06
2.47311e-07
-1.9456e-07
2.07523e-06
-1.69789e-07
2.02119e-06
-1.46321e-07
1.92704e-06
-1.24717e-07
1.84919e-06
-1.04699e-07
1.77248e-06
-8.62059e-08
1.70012e-06
-6.92045e-08
1.63128e-06
-5.36798e-08
1.56579e-06
-3.96226e-08
1.50336e-06
-2.70228e-08
1.44375e-06
-1.58664e-08
1.38671e-06
-6.13387e-09
1.332e-06
2.19887e-09
1.27939e-06
9.14704e-09
1.22862e-06
1.46758e-08
1.17915e-06
1.86e-08
1.12946e-06
2.04248e-08
1.07496e-06
1.92817e-08
1.00369e-06
1.44033e-08
8.89586e-07
6.53373e-09
6.86705e-07
3.29663e-07
-2.14849e-07
2.24792e-06
2.39922e-07
-1.86682e-07
2.04706e-06
-1.61525e-07
1.99603e-06
-1.39181e-07
1.9047e-06
-1.18239e-07
1.82825e-06
-9.88963e-08
1.75314e-06
-8.09438e-08
1.68217e-06
-6.43556e-08
1.6147e-06
-4.91236e-08
1.55055e-06
-3.5257e-08
1.4895e-06
-2.27702e-08
1.43127e-06
-1.16744e-08
1.37561e-06
-1.97381e-09
1.3223e-06
6.33408e-09
1.27108e-06
1.32482e-08
1.2217e-06
1.87209e-08
1.17368e-06
2.25489e-08
1.12563e-06
2.41866e-08
1.07332e-06
2.2633e-08
1.00524e-06
1.69104e-08
8.95308e-07
7.70775e-09
6.95908e-07
3.37371e-07
-1.97695e-07
2.21397e-06
2.31643e-07
-1.81656e-07
2.03102e-06
-1.58905e-07
1.97328e-06
-1.39757e-07
1.88555e-06
-1.20098e-07
1.80859e-06
-1.01302e-07
1.73435e-06
-8.33805e-08
1.66424e-06
-6.65343e-08
1.59785e-06
-5.08848e-08
1.5349e-06
-3.65192e-08
1.47513e-06
-2.35013e-08
1.41825e-06
-1.18764e-08
1.36399e-06
-1.67238e-09
1.31209e-06
7.09639e-09
1.26231e-06
1.44191e-08
1.21438e-06
2.02464e-08
1.16785e-06
2.43765e-08
1.1215e-06
2.62407e-08
1.07146e-06
2.47321e-08
1.00675e-06
1.86506e-08
9.01389e-07
8.56188e-09
7.05996e-07
3.45932e-07
-1.56773e-07
2.13762e-06
2.33128e-07
-1.51078e-07
2.02533e-06
-1.27606e-07
1.94981e-06
-1.11759e-07
1.86971e-06
-9.59237e-08
1.79275e-06
-8.10782e-08
1.7195e-06
-6.68354e-08
1.65e-06
-5.3201e-08
1.58422e-06
-4.02443e-08
1.52195e-06
-2.80674e-08
1.46295e-06
-1.67818e-08
1.40696e-06
-6.49384e-09
1.3537e-06
2.70239e-09
1.3029e-06
1.07291e-08
1.25429e-06
1.75179e-08
1.20759e-06
2.29733e-08
1.1624e-06
2.68608e-08
1.11762e-06
2.85789e-08
1.06974e-06
2.69325e-08
1.0084e-06
2.05045e-08
9.07817e-07
9.60669e-09
7.16894e-07
3.55539e-07
-1.50609e-07
2.07096e-06
2.17269e-07
-1.93426e-07
2.06815e-06
-1.88068e-07
1.94445e-06
-1.73785e-07
1.85542e-06
-1.54672e-07
1.77364e-06
-1.34261e-07
1.69909e-06
-1.13979e-07
1.62972e-06
-9.44536e-08
1.56469e-06
-7.60047e-08
1.5035e-06
-5.88137e-08
1.44576e-06
-4.30013e-08
1.39115e-06
-2.86568e-08
1.33936e-06
-1.58469e-08
1.29009e-06
-4.61887e-09
1.24306e-06
4.99283e-09
1.19798e-06
1.2929e-08
1.15446e-06
1.89805e-08
1.11156e-06
2.25317e-08
1.06619e-06
2.23277e-08
1.0086e-06
1.69281e-08
9.13217e-07
7.10591e-09
7.26716e-07
3.62645e-07
-1.70652e-06
2.03807e-06
1.7394e-06
-1.58398e-06
1.94561e-06
-1.47361e-06
1.83408e-06
-1.36744e-06
1.74925e-06
-1.26559e-06
1.6718e-06
-1.1676e-06
1.6011e-06
-1.07317e-06
1.53529e-06
-9.82092e-07
1.47361e-06
-8.9416e-07
1.41557e-06
-8.09193e-07
1.3608e-06
-7.27017e-07
1.30898e-06
-6.47474e-07
1.25981e-06
-5.70422e-07
1.21304e-06
-4.95738e-07
1.16837e-06
-4.23307e-07
1.12555e-06
-3.52993e-07
1.08415e-06
-2.8455e-07
1.04312e-06
-2.17511e-07
9.99147e-07
-1.5137e-07
9.42461e-07
-8.70138e-08
8.4886e-07
-3.06149e-08
6.70317e-07
3.3203e-07
-1.65217e-06
1.91577e-06
1.77447e-06
-1.50984e-06
1.80328e-06
-1.40086e-06
1.72511e-06
-1.29929e-06
1.64768e-06
-1.20387e-06
1.57638e-06
-1.11223e-06
1.50946e-06
-1.02371e-06
1.44677e-06
-9.37943e-07
1.38784e-06
-8.54735e-07
1.33236e-06
-7.73947e-07
1.28001e-06
-6.9548e-07
1.23051e-06
-6.19255e-07
1.18359e-06
-5.4521e-07
1.13899e-06
-4.73296e-07
1.09646e-06
-4.0347e-07
1.05572e-06
-3.3567e-07
1.01635e-06
-2.69756e-07
9.77206e-07
-2.05446e-07
9.34837e-07
-1.42514e-07
8.79528e-07
-8.20084e-08
7.88355e-07
-2.95002e-08
6.17809e-07
3.0253e-07
-1.60567e-06
1.80206e-06
1.71939e-06
-1.49013e-06
1.68773e-06
-1.38654e-06
1.62152e-06
-1.28596e-06
1.5471e-06
-1.18982e-06
1.48024e-06
-1.09719e-06
1.41683e-06
-1.00784e-06
1.35742e-06
-9.21526e-07
1.30153e-06
-8.38057e-07
1.24889e-06
-7.57284e-07
1.19924e-06
-6.79087e-07
1.15231e-06
-6.03369e-07
1.10787e-06
-5.3005e-07
1.06567e-06
-4.59067e-07
1.02548e-06
-3.9036e-07
9.87016e-07
-3.2385e-07
9.49837e-07
-2.59388e-07
9.12744e-07
-1.9672e-07
8.72169e-07
-1.35728e-07
8.18537e-07
-7.7607e-08
7.30233e-07
-2.77493e-08
5.67951e-07
2.7478e-07
-1.56978e-06
1.6873e-06
1.68454e-06
-1.46032e-06
1.57828e-06
-1.35715e-06
1.51834e-06
-1.25825e-06
1.44821e-06
-1.16358e-06
1.38556e-06
-1.07244e-06
1.3257e-06
-9.84525e-07
1.2695e-06
-8.9957e-07
1.21657e-06
-8.17399e-07
1.16672e-06
-7.37878e-07
1.11971e-06
-6.60904e-07
1.07534e-06
-5.864e-07
1.03337e-06
-5.14306e-07
9.93577e-07
-4.44575e-07
9.55746e-07
-3.77163e-07
9.19604e-07
-3.12002e-07
8.84676e-07
-2.48963e-07
8.49704e-07
-1.87848e-07
8.11055e-07
-1.2868e-07
7.59368e-07
-7.28438e-08
6.74397e-07
-2.56626e-08
5.2077e-07
2.49118e-07
-1.54057e-06
1.5748e-06
1.65306e-06
-1.43619e-06
1.4739e-06
-1.33488e-06
1.41703e-06
-1.23766e-06
1.35099e-06
-1.14402e-06
1.29192e-06
-1.05374e-06
1.23542e-06
-9.66573e-07
1.18234e-06
-8.82344e-07
1.13234e-06
-8.00896e-07
1.08527e-06
-7.22112e-07
1.04093e-06
-6.45901e-07
9.99127e-07
-5.72195e-07
9.5966e-07
-5.00944e-07
9.22326e-07
-4.3211e-07
8.86912e-07
-3.65657e-07
8.5315e-07
-3.01526e-07
8.20545e-07
-2.3961e-07
7.87788e-07
-1.79778e-07
7.51223e-07
-1.22199e-07
7.01789e-07
-6.8443e-08
6.20641e-07
-2.37447e-08
4.76071e-07
2.25373e-07
-1.51713e-06
1.46426e-06
1.62767e-06
-1.4151e-06
1.37187e-06
-1.31516e-06
1.31709e-06
-1.2193e-06
1.25512e-06
-1.12674e-06
1.19936e-06
-1.03743e-06
1.1461e-06
-9.51134e-07
1.09604e-06
-8.677e-07
1.04891e-06
-7.86994e-07
1.00456e-06
-7.08913e-07
9.62849e-07
-6.33377e-07
9.23591e-07
-5.60334e-07
8.86616e-07
-4.89747e-07
8.51739e-07
-4.21594e-07
8.18759e-07
-3.55854e-07
7.87411e-07
-2.9249e-07
7.57182e-07
-2.31433e-07
7.2673e-07
-1.72631e-07
6.92422e-07
-1.16409e-07
6.45567e-07
-6.45036e-08
5.68735e-07
-2.20403e-08
4.33608e-07
2.03333e-07
-1.49994e-06
1.35555e-06
1.60864e-06
-1.39938e-06
1.27131e-06
-1.3007e-06
1.21841e-06
-1.20595e-06
1.16037e-06
-1.11432e-06
1.10773e-06
-1.0258e-06
1.05759e-06
-9.40208e-07
1.01045e-06
-8.5739e-07
9.66091e-07
-7.77229e-07
9.24404e-07
-6.9963e-07
8.8525e-07
-6.24525e-07
8.48486e-07
-5.51869e-07
8.13961e-07
-4.81641e-07
7.81511e-07
-4.13836e-07
7.50953e-07
-3.48454e-07
7.22029e-07
-2.85489e-07
6.94217e-07
-2.2492e-07
6.66161e-07
-1.66791e-07
6.34293e-07
-1.11583e-07
5.90359e-07
-6.11837e-08
5.18336e-07
-2.06048e-08
3.93029e-07
1.82728e-07
-1.48823e-06
1.24856e-06
1.59522e-06
-1.3887e-06
1.17178e-06
-1.29117e-06
1.12088e-06
-1.19738e-06
1.06658e-06
-1.10661e-06
1.01696e-06
-1.01883e-06
9.69815e-07
-9.3387e-07
9.25484e-07
-8.51584e-07
8.83805e-07
-7.71858e-07
8.44677e-07
-6.94596e-07
8.07988e-07
-6.19733e-07
7.73623e-07
-5.47231e-07
7.41458e-07
-4.77077e-07
7.11357e-07
-4.09284e-07
6.83161e-07
-3.43882e-07
6.56626e-07
-2.80902e-07
6.31238e-07
-2.2039e-07
6.05649e-07
-1.62501e-07
5.76404e-07
-1.07877e-07
5.35735e-07
-5.85561e-08
4.69015e-07
-1.94505e-08
3.53923e-07
1.63277e-07
-1.48244e-06
1.14311e-06
1.58789e-06
-1.38371e-06
1.07306e-06
-1.28722e-06
1.02439e-06
-1.19429e-06
9.73645e-07
-1.1043e-06
9.26976e-07
-1.01721e-06
8.82719e-07
-9.32819e-07
8.41095e-07
-8.50994e-07
8.01981e-07
-7.71607e-07
7.6529e-07
-6.94556e-07
7.30937e-07
-6.19763e-07
6.9883e-07
-5.47185e-07
6.68879e-07
-4.7681e-07
6.40983e-07
-4.08665e-07
6.15016e-07
-3.42805e-07
5.90766e-07
-2.79314e-07
5.67747e-07
-2.1832e-07
5.44654e-07
-1.6011e-07
5.18194e-07
-1.05512e-07
4.81137e-07
-5.67255e-08
4.20228e-07
-1.86038e-08
3.15801e-07
1.44674e-07
-1.48258e-06
1.03909e-06
1.58659e-06
-1.38458e-06
9.75065e-07
-1.28905e-06
9.2886e-07
-1.19693e-06
8.81522e-07
-1.1077e-06
8.37746e-07
-1.02126e-06
7.96283e-07
-9.37437e-07
7.57268e-07
-8.56061e-07
7.20604e-07
-7.76991e-07
6.8622e-07
-7.00099e-07
6.54044e-07
-6.25281e-07
6.24013e-07
-5.52469e-07
5.96066e-07
-4.8163e-07
5.70144e-07
-4.12785e-07
5.4617e-07
-3.46005e-07
5.23987e-07
-2.81427e-07
5.03169e-07
-2.19282e-07
4.82509e-07
-1.60027e-07
4.58939e-07
-1.04717e-07
4.25827e-07
-5.57642e-08
3.71275e-07
-1.80476e-08
2.78085e-07
1.26626e-07
-1.48905e-06
9.36074e-07
1.59207e-06
-1.39169e-06
8.77702e-07
-1.29704e-06
8.34216e-07
-1.20571e-06
7.90193e-07
-1.11725e-06
7.49282e-07
-1.03151e-06
7.10539e-07
-9.4829e-07
6.74051e-07
-8.67423e-07
6.39737e-07
-7.88734e-07
6.0753e-07
-7.12058e-07
5.77369e-07
-6.37246e-07
5.49201e-07
-5.64171e-07
5.22991e-07
-4.92744e-07
4.98718e-07
-4.22938e-07
4.76364e-07
-3.54804e-07
4.55853e-07
-2.88508e-07
4.36873e-07
-2.24394e-07
4.18395e-07
-1.63142e-07
3.97687e-07
-1.06126e-07
3.68812e-07
-5.60826e-08
3.21232e-07
-1.80032e-08
2.40006e-07
1.08623e-07
-1.49913e-06
8.3458e-07
1.60063e-06
-1.40257e-06
7.81143e-07
-1.30892e-06
7.40563e-07
-1.21848e-06
6.99754e-07
-1.13088e-06
6.61683e-07
-1.04596e-06
6.25617e-07
-9.63519e-07
5.91609e-07
-8.83368e-07
5.59586e-07
-8.0531e-07
5.29471e-07
-7.29135e-07
5.01193e-07
-6.54627e-07
4.74693e-07
-5.81568e-07
4.49932e-07
-5.09758e-07
4.26908e-07
-4.39041e-07
4.05647e-07
-3.69356e-07
3.86168e-07
-3.00816e-07
3.68333e-07
-2.33834e-07
3.51414e-07
-1.69363e-07
3.33216e-07
-1.09272e-07
3.08722e-07
-5.69278e-08
2.68888e-07
-1.78208e-08
2.00899e-07
9.08023e-08
-1.52041e-06
7.33266e-07
1.62172e-06
-1.42457e-06
6.85311e-07
-1.33163e-06
6.47622e-07
-1.24185e-06
6.09967e-07
-1.15485e-06
5.74683e-07
-1.07048e-06
5.41247e-07
-9.88565e-07
5.09697e-07
-9.08934e-07
4.79955e-07
-8.31389e-07
4.51926e-07
-7.55706e-07
4.2551e-07
-6.8162e-07
4.00606e-07
-6.0882e-07
3.77132e-07
-5.36954e-07
3.55042e-07
-4.65651e-07
3.34343e-07
-3.94579e-07
3.15097e-07
-3.23575e-07
2.9733e-07
-2.52895e-07
2.80735e-07
-1.83632e-07
2.63953e-07
-1.18287e-07
2.43376e-07
-6.13112e-08
2.11913e-07
-1.92216e-08
1.5881e-07
7.15808e-08
-1.51649e-06
6.29791e-07
1.61996e-06
-1.42e-06
5.88825e-07
-1.32689e-06
5.54509e-07
-1.23709e-06
5.20166e-07
-1.15016e-06
4.87753e-07
-1.06595e-06
4.57041e-07
-9.84345e-07
4.28089e-07
-9.05215e-07
4.00825e-07
-8.28426e-07
3.75136e-07
-7.538e-07
3.50884e-07
-6.81101e-07
3.27906e-07
-6.10003e-07
3.06034e-07
-5.40073e-07
2.85112e-07
-4.70752e-07
2.65023e-07
-4.0138e-07
2.45725e-07
-3.31308e-07
2.27257e-07
-2.60208e-07
2.09636e-07
-1.88741e-07
1.92486e-07
-1.19605e-07
1.74242e-07
-5.86894e-08
1.50999e-07
-1.54956e-08
1.15617e-07
5.60854e-08
-1.37823e-06
1.48075e-06
-1.28163e-06
-1.18641e-06
-1.09466e-06
-1.00642e-06
-9.21915e-07
-8.41218e-07
-7.64367e-07
-6.91375e-07
-6.22226e-07
-5.5687e-07
-4.95193e-07
-4.36976e-07
-3.81817e-07
-3.29024e-07
-2.77476e-07
-2.25604e-07
-1.71685e-07
-1.15004e-07
-5.80295e-08
-9.94671e-09
1.8995e-06
1.49974e-07
2.00644e-08
-2.06954e-06
1.74264e-06
1.387e-07
1.81565e-08
1.59531e-06
1.30649e-07
1.66786e-08
1.45717e-06
1.22787e-07
1.53604e-08
1.32724e-06
1.15701e-07
1.42202e-08
1.20487e-06
1.09156e-07
1.32175e-08
1.08943e-06
1.0311e-07
1.23316e-08
9.80383e-07
9.75015e-08
1.15437e-08
8.77265e-07
9.22793e-08
1.08385e-08
7.79661e-07
8.74005e-08
1.02033e-08
6.87206e-07
8.28279e-08
9.62744e-09
5.99574e-07
7.85297e-08
9.10231e-09
5.16475e-07
7.44784e-08
8.62053e-09
4.3765e-07
7.06487e-08
8.17569e-09
3.62877e-07
6.70119e-08
7.76126e-09
2.91991e-07
6.3518e-08
7.36762e-09
2.24971e-07
6.00461e-08
6.97445e-09
1.62138e-07
5.6297e-08
6.53539e-09
1.04573e-07
5.16094e-08
5.95606e-09
5.47578e-08
4.47371e-08
5.07788e-09
1.73707e-08
3.36945e-08
3.69255e-09
1.57634e-08
1.60722e-09
1.89482e-06
3.19824e-07
-2.06467e-06
1.73846e-06
2.95061e-07
1.59165e-06
2.77459e-07
1.45403e-06
2.60416e-07
1.32458e-06
2.45147e-07
1.20263e-06
2.31102e-07
1.08757e-06
2.18172e-07
9.78863e-07
2.06212e-07
8.76039e-07
1.95103e-07
7.78692e-07
1.84747e-07
6.86461e-07
1.75059e-07
5.99023e-07
1.65968e-07
5.16091e-07
1.5741e-07
4.37409e-07
1.4933e-07
3.62757e-07
1.41664e-07
2.91971e-07
1.34304e-07
2.25027e-07
1.2699e-07
1.62245e-07
1.1908e-07
1.04694e-07
1.0916e-07
5.48531e-08
9.45777e-08
1.74112e-08
7.11363e-08
3.31746e-08
1.88907e-06
4.88006e-07
-2.05725e-06
1.73414e-06
4.49985e-07
1.58837e-06
4.23236e-07
1.45159e-06
3.97191e-07
1.32284e-06
3.73901e-07
1.20146e-06
3.52475e-07
1.08687e-06
3.3276e-07
9.78554e-07
3.14531e-07
8.76051e-07
2.97606e-07
7.78964e-07
2.81834e-07
6.86938e-07
2.67085e-07
5.99659e-07
2.53247e-07
5.16844e-07
2.40225e-07
4.38241e-07
2.27933e-07
3.63633e-07
2.16273e-07
2.92857e-07
2.0508e-07
2.25886e-07
1.9396e-07
1.63028e-07
1.81938e-07
1.05338e-07
1.6685e-07
5.52867e-08
1.44628e-07
1.75932e-08
1.0883e-07
5.07678e-08
1.87924e-06
6.54094e-07
-2.04532e-06
1.72634e-06
6.02879e-07
1.58216e-06
5.67417e-07
1.44678e-06
5.32576e-07
1.31919e-06
5.0149e-07
1.1988e-06
4.7286e-07
1.08505e-06
4.46515e-07
9.77429e-07
4.2215e-07
8.75509e-07
3.99526e-07
7.78903e-07
3.7844e-07
6.87268e-07
3.58719e-07
6.003e-07
3.40215e-07
5.17724e-07
3.22801e-07
4.39295e-07
3.06361e-07
3.64802e-07
2.90766e-07
2.94083e-07
2.75799e-07
2.27106e-07
2.60937e-07
1.64162e-07
2.44882e-07
1.06281e-07
2.24731e-07
5.59222e-08
1.94987e-07
1.78544e-08
1.46897e-07
6.86222e-08
1.86881e-06
8.1766e-07
-2.03238e-06
1.71848e-06
7.53215e-07
1.57625e-06
7.09647e-07
1.44255e-06
6.6627e-07
1.31636e-06
6.27681e-07
1.19714e-06
5.92076e-07
1.08436e-06
5.593e-07
9.77539e-07
5.28971e-07
8.76268e-07
5.00797e-07
7.8018e-07
4.74528e-07
6.88946e-07
4.49953e-07
6.02274e-07
4.26887e-07
5.19901e-07
4.05174e-07
4.41592e-07
3.8467e-07
3.67139e-07
3.65218e-07
2.96386e-07
3.46552e-07
2.29289e-07
3.28034e-07
1.66117e-07
3.08054e-07
1.07863e-07
2.82985e-07
5.6969e-08
2.4588e-07
1.82811e-08
1.85585e-07
8.69033e-08
1.85982e-06
9.78477e-07
-2.02063e-06
1.71234e-06
9.0069e-07
1.57223e-06
8.4976e-07
1.44036e-06
7.9814e-07
1.31565e-06
7.52388e-07
1.19766e-06
7.1007e-07
1.08587e-06
6.71092e-07
9.79839e-07
6.34998e-07
8.79188e-07
6.01448e-07
7.83565e-07
5.70151e-07
6.92659e-07
5.40858e-07
6.06192e-07
5.13354e-07
5.23913e-07
4.87453e-07
4.45598e-07
4.62986e-07
3.71046e-07
4.3977e-07
3.00102e-07
4.17497e-07
2.32711e-07
3.95424e-07
1.69109e-07
3.71657e-07
1.10237e-07
3.41856e-07
5.85171e-08
2.976e-07
1.89042e-08
2.25198e-07
1.05807e-07
1.85387e-06
1.13656e-06
-2.01196e-06
1.70938e-06
1.04518e-06
1.57141e-06
9.87736e-07
1.44138e-06
9.28173e-07
1.31813e-06
8.75628e-07
1.20132e-06
8.26881e-07
1.09046e-06
7.81954e-07
9.85147e-07
7.40313e-07
8.85015e-07
7.0158e-07
7.89738e-07
6.65428e-07
6.99025e-07
6.31572e-07
6.12611e-07
5.99768e-07
5.30258e-07
5.69805e-07
4.51755e-07
5.4149e-07
3.76908e-07
5.14616e-07
3.05563e-07
4.88842e-07
2.3765e-07
4.63337e-07
1.73361e-07
4.35946e-07
1.13573e-07
4.01644e-07
6.06757e-08
3.50498e-07
1.97694e-08
2.66104e-07
1.25577e-07
1.85226e-06
1.29205e-06
-2.00775e-06
1.71072e-06
1.18672e-06
1.57479e-06
1.12367e-06
1.44649e-06
1.05647e-06
1.32461e-06
9.97514e-07
1.20886e-06
9.4263e-07
1.0988e-06
8.92015e-07
9.94053e-07
8.45058e-07
8.94283e-07
8.01349e-07
7.99184e-07
7.60527e-07
7.08479e-07
7.22277e-07
6.2192e-07
6.86327e-07
5.39285e-07
6.5244e-07
4.60369e-07
6.20405e-07
3.84992e-07
5.89993e-07
3.12997e-07
5.60837e-07
2.44298e-07
5.32036e-07
1.79033e-07
5.0121e-07
1.17996e-07
4.62681e-07
6.35295e-08
4.04965e-07
2.09139e-08
3.0872e-07
1.46491e-07
1.85594e-06
1.44519e-06
-2.00908e-06
1.71712e-06
1.32553e-06
1.58303e-06
1.25776e-06
1.45628e-06
1.18322e-06
1.33557e-06
1.11823e-06
1.22071e-06
1.05749e-06
1.11126e-06
1.00146e-06
1.0069e-06
9.49419e-07
9.07303e-07
9.00949e-07
8.12177e-07
8.55652e-07
7.21268e-07
8.13186e-07
6.3434e-07
7.73254e-07
5.51185e-07
7.35596e-07
4.71611e-07
6.99979e-07
3.95446e-07
6.66159e-07
3.22533e-07
6.33749e-07
2.52766e-07
6.01803e-07
1.86221e-07
5.67755e-07
1.23589e-07
5.25313e-07
6.71439e-08
4.6141e-07
2.23711e-08
3.53492e-07
1.68862e-07
1.86552e-06
1.59628e-06
-2.01661e-06
1.72891e-06
1.46214e-06
1.59638e-06
1.3903e-06
1.47086e-06
1.30874e-06
1.35109e-06
1.238e-06
1.2369e-06
1.17169e-06
1.12788e-06
1.11047e-06
1.02371e-06
1.05359e-06
9.24081e-07
1.00058e-06
8.28725e-07
9.51008e-07
7.37396e-07
9.04516e-07
6.49874e-07
8.60776e-07
5.65962e-07
8.19508e-07
4.85481e-07
7.80459e-07
4.08268e-07
7.43372e-07
3.34169e-07
7.07848e-07
2.63056e-07
6.72916e-07
1.94938e-07
6.35874e-07
1.30377e-07
5.89873e-07
7.15522e-08
5.20235e-07
2.41645e-08
4.0088e-07
1.93026e-07
1.88116e-06
1.74555e-06
-2.03043e-06
1.74597e-06
1.59733e-06
1.61493e-06
1.52133e-06
1.49039e-06
1.43328e-06
1.37135e-06
1.35703e-06
1.2576e-06
1.28544e-06
1.14877e-06
1.21931e-06
1.04455e-06
1.15781e-06
9.44653e-07
1.10047e-06
8.48824e-07
1.04684e-06
7.56832e-07
9.96508e-07
6.68467e-07
9.4914e-07
5.83547e-07
9.04429e-07
5.01902e-07
8.62104e-07
4.2338e-07
8.21894e-07
3.47829e-07
7.83399e-07
2.75102e-07
7.45643e-07
2.05135e-07
7.05841e-07
1.38346e-07
6.56662e-07
7.67724e-08
5.81808e-07
2.63217e-08
4.51331e-07
2.19348e-07
1.90498e-06
1.89339e-06
-2.05283e-06
1.76781e-06
1.7345e-06
1.6371e-06
1.65205e-06
1.51256e-06
1.55783e-06
1.39392e-06
1.47567e-06
1.2805e-06
1.39886e-06
1.17186e-06
1.32795e-06
1.06763e-06
1.26205e-06
9.67489e-07
1.20061e-06
8.71185e-07
1.14314e-06
7.78491e-07
1.0892e-06
6.89211e-07
1.03842e-06
6.03172e-07
9.90468e-07
5.20224e-07
9.45053e-07
4.40226e-07
9.01892e-07
3.6304e-07
8.60585e-07
2.88506e-07
8.20177e-07
2.16494e-07
7.77853e-07
1.47263e-07
7.25893e-07
8.26691e-08
6.46402e-07
2.87928e-08
5.05207e-07
2.48141e-07
1.93602e-06
2.03582e-06
-2.07845e-06
1.7968e-06
1.87371e-06
1.6693e-06
1.77955e-06
1.54535e-06
1.68178e-06
1.42681e-06
1.59421e-06
1.31289e-06
1.51278e-06
1.20343e-06
1.43741e-06
1.09816e-06
1.36731e-06
9.96828e-07
1.30194e-06
8.99197e-07
1.24077e-06
8.05048e-07
1.18335e-06
7.14185e-07
1.12928e-06
6.26438e-07
1.07821e-06
5.41657e-07
1.02983e-06
4.59705e-07
9.83843e-07
3.80447e-07
9.39844e-07
3.0371e-07
8.96914e-07
2.29299e-07
8.52264e-07
1.57305e-07
7.97887e-07
8.93607e-08
7.14346e-07
3.16602e-08
5.62908e-07
2.79801e-07
1.98388e-06
2.18258e-06
-2.13064e-06
1.81404e-06
2.04355e-06
1.68032e-06
1.91327e-06
1.55539e-06
1.80671e-06
1.43861e-06
1.71098e-06
1.32705e-06
1.62435e-06
1.21981e-06
1.54465e-06
1.11634e-06
1.47078e-06
1.01631e-06
1.40197e-06
9.19471e-07
1.33761e-06
8.25626e-07
1.2772e-06
7.34612e-07
1.2203e-06
6.46296e-07
1.16653e-06
5.60565e-07
1.11557e-06
4.7732e-07
1.06709e-06
3.96463e-07
1.0207e-06
3.1785e-07
9.75527e-07
2.41269e-07
9.28844e-07
1.66697e-07
8.72459e-07
9.55828e-08
7.85461e-07
3.42693e-08
6.24221e-07
3.1407e-07
2.04777e-06
2.21057e-06
-2.07576e-06
1.9028e-06
2.18852e-06
1.77107e-06
2.045e-06
1.64264e-06
1.93514e-06
1.51936e-06
1.83426e-06
1.40091e-06
1.74279e-06
1.28699e-06
1.65857e-06
1.1773e-06
1.58047e-06
1.07155e-06
1.50772e-06
9.69469e-07
1.43969e-06
8.70797e-07
1.37587e-06
7.75297e-07
1.3158e-06
6.82756e-07
1.25907e-06
5.92991e-07
1.20533e-06
5.05841e-07
1.15424e-06
4.21141e-07
1.1054e-06
3.38657e-07
1.05801e-06
2.58007e-07
1.00949e-06
1.78887e-07
9.5158e-07
1.02548e-07
8.61799e-07
3.6091e-08
6.90678e-07
3.50161e-07
1.90388e-07
2.25532e-06
-2.35132e-07
2.41137e-07
2.13777e-06
2.47127e-07
2.03901e-06
2.42369e-07
1.9399e-06
2.30416e-07
1.84622e-06
2.1503e-07
1.75817e-06
1.97859e-07
1.67574e-06
1.79781e-07
1.59855e-06
1.61306e-07
1.52619e-06
1.42758e-07
1.45824e-06
1.24359e-07
1.39427e-06
1.06267e-07
1.33389e-06
8.86029e-08
1.27674e-06
7.14533e-08
1.22248e-06
5.48919e-08
1.1708e-06
3.90177e-08
1.12128e-06
2.40826e-08
1.07295e-06
1.07743e-08
1.0228e-06
5.79688e-10
9.61775e-07
-4.34435e-09
8.66724e-07
-3.04622e-09
6.89381e-07
3.47115e-07
1.97192e-07
2.31324e-06
-2.5511e-07
2.02078e-07
2.13289e-06
1.90321e-07
2.05077e-06
1.82237e-07
1.94798e-06
1.71963e-07
1.85649e-06
1.6061e-07
1.76953e-06
1.48158e-07
1.68819e-06
1.34857e-07
1.61185e-06
1.20955e-07
1.5401e-06
1.0669e-07
1.47251e-06
9.22736e-08
1.40869e-06
7.78918e-08
1.34827e-06
6.37025e-08
1.29093e-06
4.98394e-08
1.23634e-06
3.64214e-08
1.18422e-06
2.35887e-08
1.13411e-06
1.16139e-08
1.08492e-06
1.1523e-09
1.03326e-06
-6.42677e-09
9.69354e-07
-9.11946e-09
8.69417e-07
-5.81002e-09
6.86071e-07
3.41305e-07
2.24548e-07
2.33245e-06
-2.43763e-07
2.19244e-07
2.13819e-06
2.0674e-07
2.06327e-06
1.94744e-07
1.95998e-06
1.80584e-07
1.87065e-06
1.65504e-07
1.78461e-06
1.49791e-07
1.70391e-06
1.33807e-07
1.62784e-06
1.17815e-07
1.55609e-06
1.02019e-07
1.4883e-06
8.65783e-08
1.42413e-06
7.1619e-08
1.36323e-06
5.72394e-08
1.30531e-06
4.35173e-08
1.25007e-06
3.0523e-08
1.19721e-06
1.83604e-08
1.14627e-06
7.28264e-09
1.096e-06
-2.06886e-09
1.04262e-06
-8.3903e-09
9.75675e-07
-9.89628e-09
8.70923e-07
-5.84612e-09
6.82022e-07
3.35459e-07
2.32972e-07
2.34501e-06
-2.45533e-07
2.16147e-07
2.15502e-06
2.00309e-07
2.07911e-06
1.84839e-07
1.97545e-06
1.69102e-07
1.88639e-06
1.53299e-07
1.80041e-06
1.37476e-07
1.71973e-06
1.21765e-07
1.64355e-06
1.06296e-07
1.57156e-06
9.11955e-08
1.5034e-06
7.65748e-08
1.43875e-06
6.25297e-08
1.37727e-06
4.91388e-08
1.3187e-06
3.64673e-08
1.26274e-06
2.45789e-08
1.2091e-06
1.35782e-08
1.15727e-06
3.72344e-09
1.10585e-06
-4.35469e-09
1.05069e-06
-9.44224e-09
9.80763e-07
-9.99723e-09
8.71478e-07
-5.60069e-09
6.77625e-07
3.29858e-07
2.36064e-07
2.35526e-06
-2.46308e-07
2.1608e-07
2.175e-06
1.99673e-07
2.09552e-06
1.82686e-07
1.99243e-06
1.65928e-07
1.90314e-06
1.4928e-07
1.81706e-06
1.32878e-07
1.73613e-06
1.16832e-07
1.65959e-06
1.01251e-07
1.58714e-06
8.62344e-08
1.51842e-06
7.18636e-08
1.45312e-06
5.82072e-08
1.39093e-06
4.53192e-08
1.33158e-06
3.32436e-08
1.27481e-06
2.20274e-08
1.22032e-06
1.17634e-08
1.16754e-06
2.69835e-09
1.11492e-06
-4.57419e-09
1.05797e-06
-8.95894e-09
9.85148e-07
-9.15731e-09
8.71677e-07
-4.99533e-09
6.73463e-07
3.24863e-07
2.35773e-07
2.36613e-06
-2.46652e-07
2.14183e-07
2.19659e-06
1.96886e-07
2.11281e-06
1.78912e-07
2.01041e-06
1.61593e-07
1.92046e-06
1.44637e-07
1.83401e-06
1.28166e-07
1.7526e-06
1.1224e-07
1.67552e-06
9.69276e-08
1.60245e-06
8.22938e-08
1.53305e-06
6.83941e-08
1.46702e-06
5.52742e-08
1.40405e-06
4.29702e-08
1.34389e-06
3.15111e-08
1.28627e-06
2.09326e-08
1.2309e-06
1.13174e-08
1.17715e-06
2.89625e-09
1.12334e-06
-3.78566e-09
1.06465e-06
-7.75922e-09
9.89122e-07
-7.94018e-09
8.71858e-07
-4.29943e-09
6.69823e-07
3.20564e-07
2.32463e-07
2.37821e-06
-2.44537e-07
2.10656e-07
2.2184e-06
1.9303e-07
2.13044e-06
1.74843e-07
2.02859e-06
1.5747e-07
1.93784e-06
1.40601e-07
1.85088e-06
1.24344e-07
1.76886e-06
1.08741e-07
1.69112e-06
9.38369e-08
1.61735e-06
7.9677e-08
1.54721e-06
6.62972e-08
1.4804e-06
5.37265e-08
1.41662e-06
4.19859e-08
1.35563e-06
3.10921e-08
1.29717e-06
2.10701e-08
1.24092e-06
1.19915e-08
1.18623e-06
4.06503e-09
1.13127e-06
-2.22208e-09
1.07094e-06
-6.02869e-09
9.92929e-07
-6.4537e-09
8.72283e-07
-3.53735e-09
6.66907e-07
3.17026e-07
2.25661e-07
2.39128e-06
-2.38736e-07
2.04405e-07
2.23965e-06
1.86904e-07
2.14794e-06
1.69056e-07
2.04644e-06
1.52081e-07
1.95481e-06
1.35698e-07
1.86727e-06
1.19996e-07
1.78456e-06
1.04997e-07
1.70612e-06
9.07321e-08
1.63162e-06
7.72285e-08
1.56072e-06
6.45081e-08
1.49312e-06
5.2587e-08
1.42854e-06
4.14753e-08
1.36674e-06
3.11809e-08
1.30746e-06
2.172e-08
1.25038e-06
1.31531e-08
1.1948e-06
5.66389e-09
1.13876e-06
-3.23413e-10
1.07692e-06
-4.09096e-09
9.96696e-07
-4.89171e-09
8.73084e-07
-2.77985e-09
6.64795e-07
3.14247e-07
2.14382e-07
2.40482e-06
-2.27916e-07
1.94322e-07
2.25971e-06
1.77491e-07
2.16477e-06
1.60521e-07
2.06341e-06
1.44411e-07
1.97092e-06
1.28928e-07
1.88275e-06
1.14136e-07
1.79935e-06
1.00049e-07
1.72021e-06
8.6685e-08
1.64498e-06
7.40585e-08
1.57334e-06
6.21818e-08
1.50499e-06
5.10621e-08
1.43966e-06
4.07023e-08
1.3771e-06
3.11037e-08
1.31706e-06
2.22763e-08
1.25921e-06
1.42698e-08
1.2028e-06
7.24078e-09
1.14579e-06
1.5495e-09
1.08262e-06
-2.20305e-09
1.00045e-06
-3.39918e-09
8.7428e-07
-2.07292e-09
6.63469e-07
3.12174e-07
1.97522e-07