/*--------------------------------*- C++ -*----------------------------------*\
| =========                 |                                                 |
| \\      /  F ield         | foam-extend: Open Source CFD                    |
|  \\    /   O peration     | Version:  3.0                                   |
|   \\  /    A nd           | Web:         http://www.extend-project.de       |
|    \\/     M anipulation  |                                                 |
\*---------------------------------------------------------------------------*/
FoamFile
{
    version     2.0;
    format      ascii;
    class       volVectorField;
    location    "0.005";
    object      U;
}
// * * * * * * * * * * * * * * * * * * * * * * * * * * * * * * * * * * * * * //

dimensions      [0 1 -1 0 0 0 0];

internalField   nonuniform List<vector> 
10470
(
(0.0113427 -0.000154719 9.82283e-20)
(0.0114999 -0.00010758 5.50569e-20)
(0.0117788 -0.000146425 -1.22987e-19)
(0.0120439 -0.000153874 0)
(0.0123277 -0.000171164 0)
(0.012622 -0.000185888 -8.49339e-20)
(0.0129276 -0.000201113 9.41182e-20)
(0.0132441 -0.00021626 1.03967e-19)
(0.0135707 -0.000231358 -1.71957e-19)
(0.0139067 -0.00024638 6.30333e-20)
(0.0142514 -0.000261286 6.89796e-20)
(0.0146039 -0.000276029 7.53439e-20)
(0.0149631 -0.00029055 8.21211e-20)
(0.0153276 -0.000304763 2.7496e-24)
(0.0156937 -0.000318522 -4.81636e-20)
(0.0160504 -0.000331486 0)
(0.0163617 -0.000342723 -5.54407e-20)
(0.0165243 -0.000349864 -1.06428e-24)
(0.0162854 -0.000347311 1.25518e-19)
(0.0151201 -0.000322981 -6.62927e-20)
(0.0121053 -0.000258754 0)
(0.00585723 -0.000135027 0)
(0.011298 -0.000546577 9.78839e-20)
(0.0114611 -0.000396804 -1.09698e-19)
(0.011736 -0.000503147 6.14296e-20)
(0.0120004 -0.0005187 1.36637e-19)
(0.0122824 -0.000563769 0)
(0.012575 -0.000602228 -1.69285e-19)
(0.0128788 -0.000642909 3.74884e-19)
(0.0131935 -0.000684071 -5.19137e-20)
(0.0135182 -0.000725774 5.72245e-20)
(0.0138525 -0.000767919 0)
(0.0141954 -0.000810375 -3.44011e-19)
(0.0145461 -0.000853013 7.50524e-20)
(0.0149036 -0.000895693 8.19155e-20)
(0.0152664 -0.000938247 -1.77395e-19)
(0.015631 -0.000980374 -4.7967e-20)
(0.0159863 -0.00102125 0)
(0.0162965 -0.00105829 1.10258e-19)
(0.0164586 -0.00108436 1.17721e-19)
(0.0162201 -0.00108193 -1.24938e-19)
(0.0150581 -0.00101279 -1.31964e-19)
(0.0120525 -0.000816345 1.38677e-19)
(0.00582657 -0.00042117 0)
(0.0112137 -0.00093004 -1.94679e-19)
(0.0113929 -0.000679767 4.36042e-19)
(0.0116563 -0.000852872 0)
(0.011919 -0.000876303 1.35487e-19)
(0.0121961 -0.000948873 3.03227e-19)
(0.0124846 -0.00101076 -3.36805e-19)
(0.0127843 -0.00107661 -1.86943e-19)
(0.0130947 -0.0011435 -2.06371e-19)
(0.0134153 -0.00121154 2.27471e-19)
(0.0137453 -0.00128056 2.4972e-19)
(0.0140841 -0.00135034 1.37205e-19)
(0.0144308 -0.00142064 0)
(0.0147844 -0.00149124 4.07366e-19)
(0.0151434 -0.00156186 -3.53291e-19)
(0.0155043 -0.00163199 -3.81434e-19)
(0.0158563 -0.00170026 5.13152e-19)
(0.0161639 -0.00176239 -1.10094e-19)
(0.0163255 -0.00180648 -2.34555e-19)
(0.0160912 -0.00180325 -1.24654e-19)
(0.0149418 -0.00168874 2.6301e-19)
(0.0119628 -0.00136128 0)
(0.00578188 -0.000701372 0)
(0.0110893 -0.00129868 0)
(0.0112918 -0.000951366 -2.17108e-19)
(0.0115383 -0.00119038 4.44476e-22)
(0.0117982 -0.00122137 -5.41842e-19)
(0.0120681 -0.00132102 -9.8887e-23)
(0.0123505 -0.00140583 3.34665e-19)
(0.0126437 -0.00149637 -5.93152e-22)
(0.0129477 -0.00158853 6.14952e-19)
(0.0132618 -0.00168249 4.52329e-19)
(0.0135855 -0.00177799 -4.97862e-19)
(0.013918 -0.00187473 0)
(0.0142586 -0.0019724 0)
(0.0146061 -0.00207066 3.24062e-19)
(0.0149592 -0.0021691 -3.5144e-19)
(0.0153147 -0.00226703 -1.8965e-19)
(0.0156617 -0.00236254 3.06315e-19)
(0.0159661 -0.00244971 0)
(0.0161281 -0.00251206 -4.6705e-19)
(0.0159017 -0.0025089 3.71716e-19)
(0.0147744 -0.00235107 1.30821e-19)
(0.0118378 -0.00189626 2.75412e-19)
(0.00572296 -0.000977094 -2.45294e-19)
(0.0109286 -0.00164867 -3.83493e-19)
(0.0111603 -0.00120795 0)
(0.0113853 -0.00151091 7.22139e-19)
(0.0116414 -0.00154886 -5.37216e-19)
(0.0119017 -0.00167485 2.98703e-19)
(0.0121759 -0.0017818 -3.32241e-19)
(0.0124604 -0.00189633 -1.0744e-21)
(0.0127557 -0.00201309 -2.03959e-19)
(0.0130612 -0.00213233 0)
(0.0133763 -0.00225376 -6.76237e-22)
(0.0137003 -0.00237696 -2.71101e-19)
(0.0140324 -0.00250154 5.91405e-19)
(0.0143718 -0.00262706 0)
(0.014717 -0.002753 -1.7491e-19)
(0.015065 -0.00287846 1.88449e-19)
(0.0154055 -0.00300107 4.06262e-19)
(0.0157056 -0.00311342 4.35461e-19)
(0.0158684 -0.00319476 -4.6456e-19)
(0.0156535 -0.00319358 0)
(0.0145565 -0.0029962 3.90975e-19)
(0.0116774 -0.00241977 -5.48383e-19)
(0.00564896 -0.00124793 -1.22146e-19)
(0.0107353 -0.00197475 7.59447e-19)
(0.011 -0.00144513 0)
(0.0111993 -0.00180944 0)
(0.0114507 -0.00185364 5.32448e-19)
(0.0116991 -0.0020049 -1.48173e-18)
(0.0119629 -0.00213299 0)
(0.0122366 -0.00227056 -3.65818e-19)
(0.0125211 -0.00241103 -4.03389e-19)
(0.0128156 -0.00255474 0)
(0.0131199 -0.00270135 -2.45284e-19)
(0.0134331 -0.00285037 -2.68901e-19)
(0.0137547 -0.00300131 8.80044e-19)
(0.0140838 -0.00315364 -6.39065e-19)
(0.0144191 -0.00330673 -5.19922e-19)
(0.0147577 -0.00345951 1.87208e-19)
(0.01509 -0.00360918 7.01514e-23)
(0.0153847 -0.00374708 -6.49151e-19)
(0.0155489 -0.00384862 4.61678e-19)
(0.0153489 -0.00385216 0)
(0.0142907 -0.00362036 7.77673e-19)
(0.0114839 -0.00292974 -5.45613e-19)
(0.00556148 -0.00151328 -3.65562e-19)
(0.0105137 -0.00227255 -3.76855e-19)
(0.0108136 -0.00165903 -8.14612e-22)
(0.010984 -0.00208151 9.44197e-19)
(0.0112294 -0.00213107 -5.26844e-19)
(0.0114638 -0.00230624 1.75222e-21)
(0.0117154 -0.00245418 0)
(0.0119762 -0.00261359 0)
(0.0122476 -0.00277662 1.1086e-21)
(0.0125291 -0.00294378 0)
(0.0128202 -0.00311464 0)
(0.0131205 -0.00328866 0)
(0.0134293 -0.00346528 -2.91168e-19)
(0.0137459 -0.00364387 0)
(0.0140691 -0.00382369 8.57433e-22)
(0.0143963 -0.00400353 7.43468e-19)
(0.0147186 -0.00418029 1.61415e-22)
(0.0150068 -0.00434424 -1.07337e-18)
(0.0151726 -0.00446753 2.28906e-19)
(0.0149908 -0.00447928 0)
(0.0139796 -0.00421955 -7.73339e-19)
(0.0112597 -0.00342401 1.08491e-18)
(0.00546203 -0.00177266 -4.85898e-19)
(0.0102686 -0.00253836 -7.43812e-19)
(0.0106048 -0.00184632 -4.18024e-19)
(0.0107436 -0.00232323 -4.66068e-19)
(0.010982 -0.00237713 0)
(0.0112005 -0.00257447 5.81375e-19)
(0.0114381 -0.00274069 0)
(0.0116839 -0.00292044 0)
(0.0119401 -0.00310464 3.96198e-19)
(0.0122063 -0.00329395 0)
(0.0124821 -0.00348791 -4.79429e-19)
(0.0127671 -0.00368593 0)
(0.0130608 -0.00388737 0)
(0.0133627 -0.00409153 6.27062e-19)
(0.0136716 -0.00429757 1.08169e-22)
(0.0139852 -0.00450416 0)
(0.0142956 -0.004708 0)
(0.0145758 -0.0048986 0)
(0.014743 -0.00504545 -4.54471e-19)
(0.014582 -0.0050696 0)
(0.0136256 -0.00478978 -5.11558e-19)
(0.0110066 -0.00390052 8.07819e-19)
(0.00535195 -0.00202568 -4.84092e-19)
(0.0100053 -0.0027695 -7.35228e-19)
(0.0103779 -0.00200471 1.6469e-18)
(0.0104832 -0.0025315 1.41126e-21)
(0.0107137 -0.00258873 5.14831e-19)
(0.0109146 -0.002806 -5.73056e-19)
(0.0111365 -0.00298866 0)
(0.0113655 -0.00318693 7.06727e-19)
(0.0116045 -0.00339058 -7.81224e-19)
(0.0118533 -0.00360048 8.62249e-19)
(0.0121115 -0.00381613 -1.42108e-18)
(0.0123789 -0.0040369 5.19908e-19)
(0.0126552 -0.0042621 5.67868e-19)
(0.0129399 -0.00449095 3.09415e-19)
(0.0132321 -0.00472254 3.36095e-19)
(0.0135297 -0.00495546 -7.2782e-19)
(0.0138259 -0.00518628 -3.91806e-19)
(0.0140963 -0.00540412 -4.20556e-19)
(0.0142643 -0.00557652 5.16316e-22)
(0.0141261 -0.0056178 0)
(0.0132311 -0.00532698 1.26765e-18)
(0.0107264 -0.00435713 -1.33659e-18)
(0.00523229 -0.00227199 2.40755e-19)
(0.00972858 -0.00296446 -7.24711e-19)
(0.0101385 -0.00213361 -4.07711e-19)
(0.0102091 -0.00270457 4.55833e-19)
(0.0104316 -0.00276477 -5.07338e-19)
(0.0106137 -0.00299913 -1.13018e-18)
(0.0108183 -0.00319618 -4.70802e-22)
(0.0110286 -0.00341074 6.96455e-19)
(0.0112485 -0.00363176 7.69584e-19)
(0.0114776 -0.00386028 0)
(0.011716 -0.00409582 1.40353e-18)
(0.0119634 -0.00433773 -1.0255e-18)
(0.0122198 -0.00458527 5.59594e-19)
(0.0124848 -0.00483763 -3.05776e-19)
(0.0127576 -0.00509381 -6.63869e-19)
(0.0130367 -0.00535238 0)
(0.0133161 -0.00560989 3.87867e-19)
(0.0135742 -0.00585537 9.39861e-22)
(0.0137415 -0.00605527 -2.21724e-19)
(0.013627 -0.00611873 0)
(0.0127988 -0.00582705 -2.51351e-19)
(0.0104205 -0.00479165 0)
(0.00510381 -0.00251124 -2.40125e-19)
(0.00943965 -0.00312236 1.4295e-18)
(0.00988922 -0.00223371 -5.54403e-22)
(0.00992218 -0.00283842 0)
(0.0101364 -0.0029015 9.99706e-19)
(0.0102984 -0.00314818 1.11437e-18)
(0.0104847 -0.00335726 -6.18608e-19)
(0.0106753 -0.00358557 -6.8636e-19)
(0.0108748 -0.00382184 -7.60287e-19)
(0.0110828 -0.00406709 8.36759e-19)
(0.0112995 -0.00432082 0)
(0.0115251 -0.00458236 0)
(0.0117595 -0.00485092 -1.10469e-18)
(0.0120025 -0.00512564 0)
(0.0122537 -0.00540548 -3.27594e-19)
(0.0125116 -0.00568899 7.08202e-19)
(0.0127715 -0.00597283 -3.81611e-19)
(0.0130149 -0.00624628 -4.10125e-19)
(0.0131792 -0.00647556 1.31813e-18)
(0.0130879 -0.00656644 0)
(0.0123304 -0.00628493 0)
(0.0100891 -0.00520091 0)
(0.00496644 -0.00274248 0)
(0.00914283 -0.00324648 0)
(0.00965373 -0.00232103 -7.90193e-19)
(0.00965169 -0.00294732 0)
(0.00986017 -0.00302099 -4.92707e-19)
(0.0100017 -0.0032752 -1.09564e-18)
(0.0101675 -0.00349412 -6.07836e-19)
(0.0103353 -0.00373209 0)
(0.0105106 -0.00397937 -1.17908e-21)
(0.0106938 -0.00423704 8.2254e-19)
(0.0108851 -0.00450481 0)
(0.0110849 -0.00478207 9.9319e-19)
(0.0112933 -0.00506807 -5.42104e-19)
(0.0115104 -0.00536195 0)
(0.0117359 -0.00566263 -1.60843e-18)
(0.0119689 -0.00596868 6.96781e-19)
(0.0122053 -0.00627694 8.0758e-22)
(0.0124296 -0.00657725 0)
(0.0125871 -0.00683646 0)
(0.0125164 -0.00695891 0)
(0.0118305 -0.00669833 0)
(0.00973451 -0.00558368 -1.29487e-18)
(0.00482133 -0.00296599 1.89581e-18)
(0.00878166 -0.00331685 6.91337e-19)
(0.00936235 -0.00236984 -7.7507e-19)
(0.00931528 -0.00296245 1.7339e-18)
(0.00951753 -0.00304696 -6.45617e-22)
(0.0096438 -0.00329644 1.38868e-21)
(0.0097936 -0.00352462 5.97667e-19)
(0.00994438 -0.003773 6.62265e-19)
(0.010101 -0.00403383 -6.05879e-22)
(0.010264 -0.00430707 -8.08672e-19)
(0.0104339 -0.00459213 8.88209e-19)
(0.0106111 -0.00488825 -9.74909e-19)
(0.0107961 -0.00519458 1.5982e-18)
(0.0109891 -0.0055102 0)
(0.0111899 -0.00583402 1.89568e-18)
(0.011398 -0.0061646 -6.84411e-19)
(0.0116104 -0.00649907 -9.95862e-23)
(0.0118143 -0.00682807 7.94857e-19)
(0.0119627 -0.00711997 8.51951e-19)
(0.0119102 -0.00727978 -9.08967e-19)
(0.0112957 -0.00705268 9.66158e-19)
(0.00935149 -0.00592874 2.55997e-19)
(0.0046645 -0.00317625 -9.40709e-19)
(0.00849 -0.00340345 -6.82007e-19)
(0.00928881 -0.00260781 7.64139e-19)
(0.00921123 -0.00313812 -2.38479e-21)
(0.00939101 -0.00326848 -9.51366e-19)
(0.00948868 -0.00350074 5.292e-19)
(0.00960131 -0.00372366 -5.87497e-19)
(0.00971482 -0.0039616 -6.50315e-19)
(0.009833 -0.00421334 1.43674e-18)
(0.00995706 -0.00447933 -7.92278e-19)
(0.0100878 -0.00475962 -8.70668e-19)
(0.010226 -0.00505381 1.4327e-18)
(0.0103722 -0.00536125 -1.5675e-18)
(0.0105267 -0.00568106 -5.70595e-19)
(0.0106898 -0.00601217 6.18489e-19)
(0.0108611 -0.00635315 0)
(0.0110384 -0.00670131 -3.62877e-19)
(0.0112115 -0.0070482 3.89765e-19)
(0.011341 -0.00736427 8.36757e-19)
(0.0112975 -0.00755712 -4.47098e-19)
(0.0107477 -0.0073674 9.50539e-19)
(0.00895458 -0.00624893 -1.00651e-18)
(0.00450293 -0.00338018 0)
(0.00755436 -0.0029936 -6.69886e-19)
(0.00858129 -0.00242254 -1.28613e-21)
(0.00859155 -0.00265023 -8.37274e-19)
(0.00877161 -0.00282096 0)
(0.00890025 -0.00305017 0)
(0.00902646 -0.00330618 8.86819e-22)
(0.00915072 -0.00358154 6.69705e-22)
(0.00927516 -0.00387434 -1.40541e-18)
(0.00940154 -0.0041828 7.74304e-19)
(0.00953095 -0.00450599 0)
(0.00966424 -0.00484308 -4.67702e-19)
(0.00980214 -0.00519319 1.02219e-18)
(0.00994522 -0.00555531 -1.67193e-18)
(0.0100939 -0.0059283 -6.06044e-19)
(0.0102481 -0.00631072 -2.82123e-22)
(0.0104065 -0.00670008 7.09522e-19)
(0.0105609 -0.0070888 -3.82457e-19)
(0.0106789 -0.00744945 -8.20008e-19)
(0.0106474 -0.00769307 4.37647e-19)
(0.0101618 -0.00755951 -4.67034e-19)
(0.00852244 -0.00647424 9.89145e-19)
(0.00432053 -0.00353924 9.22734e-19)
(0.00917078 -0.0027693 -3.52915e-19)
(0.0090562 -0.00339967 -1.18407e-18)
(0.00910642 -0.00335365 8.80983e-19)
(0.00913015 -0.0035129 0)
(0.00917493 -0.00368049 0)
(0.00922074 -0.00388023 6.01969e-19)
(0.00927023 -0.00410117 -7.91776e-22)
(0.00932226 -0.00434224 1.46574e-18)
(0.00937764 -0.00460253 -8.07559e-19)
(0.00943721 -0.00488151 -6.94007e-22)
(0.00950189 -0.00517871 9.67336e-19)
(0.00957256 -0.0054935 0)
(0.00965003 -0.00582499 5.74166e-19)
(0.00973497 -0.00617204 0)
(0.00982769 -0.00653301 6.7422e-19)
(0.00992718 -0.00690498 -1.0899e-18)
(0.0100266 -0.00727954 -2.55083e-22)
(0.0100967 -0.00762769 4.17299e-19)
(0.0100327 -0.00785744 0)
(0.00955027 -0.00770457 -4.71481e-19)
(0.00799536 -0.00658383 9.94503e-19)
(0.00403645 -0.00358068 -9.22732e-19)
(0.0089744 -0.00236167 1.79882e-18)
(0.00838002 -0.00285288 4.30007e-22)
(0.00852108 -0.00293542 1.3426e-18)
(0.00851111 -0.00318583 4.98495e-19)
(0.00857348 -0.00340606 -1.1051e-18)
(0.0086269 -0.00365447 0)
(0.0086853 -0.0039174 -1.35447e-18)
(0.00874382 -0.00419737 7.4593e-19)
(0.00880296 -0.00449381 -8.20466e-19)
(0.00886311 -0.00480639 -9.00249e-19)
(0.0089249 -0.00513465 -4.92341e-19)
(0.00898909 -0.00547793 -5.37207e-19)
(0.00905647 -0.00583538 -1.75537e-18)
(0.00912775 -0.00620586 1.26827e-18)
(0.00920339 -0.0065878 0)
(0.00928245 -0.00697801 -3.69499e-19)
(0.00935791 -0.00736682 -7.92434e-19)
(0.00939969 -0.00772118 1.27041e-18)
(0.00930529 -0.0079404 4.50215e-19)
(0.0088072 -0.00775117 0)
(0.00731105 -0.00657486 7.55367e-19)
(0.00364592 -0.00351969 -2.08905e-18)
(0.00877373 -0.00266397 -1.09795e-18)
(0.00827551 -0.00308578 -8.17309e-19)
(0.00849657 -0.00319354 -4.56543e-19)
(0.00845694 -0.00342961 1.51988e-18)
(0.00849717 -0.00363476 -5.61408e-19)
(0.00851333 -0.00386752 1.24631e-18)
(0.00853312 -0.00411401 7.13668e-22)
(0.00855093 -0.00437794 -1.51807e-18)
(0.00856821 -0.00465898 8.35979e-19)
(0.00858559 -0.00495707 0)
(0.00860386 -0.00527189 5.01671e-19)
(0.00862391 -0.00560289 -5.46731e-19)
(0.00864665 -0.00594926 5.94254e-19)
(0.00867292 -0.0063099 6.44538e-19)
(0.00870325 -0.00668312 6.966e-19)
(0.0087366 -0.00706533 -7.49555e-19)
(0.00876549 -0.00744545 0)
(0.00875911 -0.00778682 -8.58546e-19)
(0.00861752 -0.00798147 9.12751e-19)
(0.00809083 -0.00775023 -1.93225e-18)
(0.00664433 -0.00652463 1.01803e-18)
(0.0032646 -0.00343633 2.33476e-19)
(0.00855371 -0.00273948 -3.70728e-19)
(0.00806092 -0.00306538 -4.13737e-19)
(0.00826623 -0.00318934 0)
(0.00820201 -0.00342265 -1.03075e-18)
(0.00822605 -0.00363299 5.72231e-19)
(0.00822186 -0.00386906 -1.26783e-18)
(0.00822052 -0.00411794 6.99864e-19)
(0.00821515 -0.00438331 1.05523e-21)
(0.00820722 -0.00466493 0)
(0.00819734 -0.0049629 0)
(0.00818632 -0.00527704 0)
(0.00817516 -0.00560692 0)
(0.00816486 -0.00595187 6.04087e-19)
(0.00815644 -0.00631088 -6.54258e-19)
(0.00815056 -0.00668227 -7.0672e-19)
(0.00814621 -0.00706215 1.13977e-18)
(0.00813566 -0.00743812 0)
(0.00808802 -0.00777016 4.34227e-19)
(0.00790743 -0.00794422 1.61602e-18)
(0.00736362 -0.00767815 -9.76238e-19)
(0.00598153 -0.00641791 2.57047e-19)
(0.00289456 -0.00332853 0)
(0.00834787 -0.00282564 9.72101e-22)
(0.00789386 -0.00310999 1.26377e-18)
(0.00807856 -0.00324529 4.70172e-19)
(0.00800046 -0.0034669 -5.22529e-19)
(0.00800371 -0.00367137 0)
(0.00797564 -0.00389888 6.43621e-19)
(0.0079479 -0.00413895 -1.42197e-18)
(0.00791403 -0.00439503 1.96054e-18)
(0.00787571 -0.00466714 -4.30957e-19)
(0.00783368 -0.00495552 0)
(0.00778887 -0.00526015 1.0342e-18)
(0.00774237 -0.00558076 -5.63639e-19)
(0.00769533 -0.00591677 3.06038e-19)
(0.00764892 -0.00626727 0)
(0.00760394 -0.00663057 3.57699e-19)
(0.0075594 -0.00700241 3.84652e-19)
(0.00750755 -0.00736909 4.11979e-19)
(0.00741809 -0.00768758 -1.31822e-18)
(0.00720074 -0.00783922 -3.31575e-22)
(0.00664666 -0.00754212 2.4616e-19)
(0.00533932 -0.00626088 0)
(0.00254461 -0.00320186 -2.34675e-19)
(0.00814494 -0.00287433 3.82564e-19)
(0.00772511 -0.0031173 -4.28208e-19)
(0.0078754 -0.00325473 -5.79064e-23)
(0.00778472 -0.00346244 5.30007e-19)
(0.00776609 -0.00365934 0)
(0.00771609 -0.00387707 6.5284e-19)
(0.00766388 -0.0041072 -7.20772e-19)
(0.0076036 -0.00435272 7.95041e-19)
(0.00753683 -0.00461379 -1.31188e-18)
(0.00746439 -0.0048908 9.58168e-19)
(0.00738725 -0.0051839 0)
(0.00730661 -0.00549299 -5.71426e-19)
(0.00722379 -0.0058177 -3.10377e-19)
(0.00714011 -0.00615726 0)
(0.00705655 -0.00651 -1.08688e-18)
(0.0069723 -0.00687135 7.78128e-19)
(0.00687983 -0.00722649 4.1619e-19)
(0.00675026 -0.00752994 -6.65457e-19)
(0.00650026 -0.00766012 -2.35401e-19)
(0.00594362 -0.00733871 -2.48471e-19)
(0.00472033 -0.00605296 0)
(0.00221516 -0.00305648 -7.05809e-19)
(0.00794812 -0.00290017 0)
(0.00756521 -0.0031079 4.32493e-19)
(0.00767897 -0.00324402 0)
(0.00757782 -0.00343559 0)
(0.00753723 -0.00362111 0)
(0.007466 -0.00382512 6.60398e-19)
(0.00738983 -0.00404121 -7.30626e-19)
(0.00730367 -0.00427193 1.60954e-18)
(0.00720894 -0.00451768 -8.84656e-19)
(0.00710647 -0.00477898 -9.70553e-19)
(0.00699728 -0.0050562 1.59049e-18)
(0.00688263 -0.00534948 -2.88855e-19)
(0.00676397 -0.00565867 6.27479e-19)
(0.0066428 -0.00598322 -6.78691e-19)
(0.00652034 -0.00632156 3.65698e-19)
(0.00639605 -0.0066689 0)
(0.00626296 -0.00700953 0)
(0.00609432 -0.00729624 -1.34207e-18)
(0.00581496 -0.00740639 9.48028e-19)
(0.0052619 -0.0070684 0)
(0.00412892 -0.00579568 0)
(0.00190702 -0.00289317 0)
(0.00775964 -0.0029024 3.92039e-19)
(0.00741457 -0.00307612 -8.7535e-19)
(0.00749146 -0.00320712 4.8858e-19)
(0.00738118 -0.00338036 7.50774e-22)
(0.00731962 -0.00355138 -6.02935e-19)
(0.0072286 -0.00373853 -6.68734e-19)
(0.00712993 -0.00393717 3.69853e-19)
(0.00701936 -0.00414948 -1.22099e-18)
(0.00689806 -0.00437605 8.95204e-19)
(0.00676681 -0.00461758 -9.8045e-19)
(0.00662658 -0.00487469 -5.36029e-19)
(0.00647867 -0.00514779 2.91511e-19)
(0.00632458 -0.00543708 0)
(0.006166 -0.00574233 0)
(0.0060044 -0.00606219 -3.69425e-19)
(0.00583966 -0.00639184 -9.90618e-19)
(0.00566571 -0.00671503 -2.11818e-19)
(0.00545865 -0.00698368 1.35155e-18)
(0.00515238 -0.00707605 -9.54312e-19)
(0.00460733 -0.00673034 7.54285e-19)
(0.00356805 -0.00548925 1.05443e-18)
(0.00162037 -0.00271191 -9.43345e-19)
(0.00758313 -0.0028819 -3.95338e-19)
(0.00727661 -0.00302306 5.94178e-22)
(0.00731822 -0.00314585 -4.92826e-19)
(0.00720041 -0.00329882 1.09789e-18)
(0.00711967 -0.00345244 -3.04491e-19)
(0.00701079 -0.00361968 0)
(0.00689168 -0.00379747 3.73194e-19)
(0.00675874 -0.00398766 -1.2334e-18)
(0.00661289 -0.004191 9.03198e-19)
(0.00645471 -0.00440838 2.47421e-19)
(0.00628507 -0.00464067 0)
(0.00610513 -0.00488864 0)
(0.0059164 -0.00515292 0)
(0.00572066 -0.00543373 -6.91057e-19)
(0.00551962 -0.00573018 1.4883e-18)
(0.00531369 -0.00603768 1.99882e-19)
(0.00509805 -0.00633996 2.13452e-19)
(0.00485229 -0.00658914 -1.13323e-18)
(0.00452019 -0.00666634 0)
(0.00398543 -0.00632253 2.52726e-19)
(0.00304018 -0.00513255 0)
(0.00135517 -0.00251181 9.43776e-19)
(0.00742416 -0.00284776 -3.99141e-19)
(0.00715587 -0.00295703 4.07377e-22)
(0.00716494 -0.00306816 0)
(0.00704149 -0.00319878 -5.54043e-19)
(0.00694404 -0.00333202 -6.14886e-19)
(0.0068198 -0.00347627 0)
(0.00668294 -0.00362972 0)
(0.00653045 -0.00379395 2.07572e-19)
(0.00636287 -0.0039698 0)
(0.00618053 -0.00415829 4.99075e-19)
(0.00598401 -0.00436052 -2.72503e-19)
(0.00577419 -0.00457765 0)
(0.00555238 -0.00481078 8.04739e-19)
(0.00532023 -0.0050608 -5.21733e-19)
(0.00507961 -0.00532752 1.87182e-19)
(0.00483145 -0.00560705 8.03199e-19)
(0.00457246 -0.00588384 -8.57253e-19)
(0.00428638 -0.00611146 9.11204e-19)
(0.00392757 -0.00617609 -1.08403e-18)
(0.00340264 -0.00584431 0)
(0.00254841 -0.00472568 9.29309e-19)
(0.00111194 -0.00229322 1.17964e-19)
(0.00727977 -0.00277081 8.05392e-19)
(0.0070506 -0.00285234 5.71555e-22)
(0.00703051 -0.00295054 -5.01821e-19)
(0.00690387 -0.00305879 5.576e-19)
(0.00679299 -0.00317061 3.09887e-19)
(0.00665675 -0.00329062 0)
(0.0065058 -0.00341803 3.792e-19)
(0.00633762 -0.00355408 -4.17237e-19)
(0.00615234 -0.00369959 -6.88291e-19)
(0.00594994 -0.00385561 -5.43064e-22)
(0.00573054 -0.00402335 8.23026e-19)
(0.00549452 -0.00420423 -5.97058e-19)
(0.00524263 -0.00439987 4.85832e-19)
(0.00497608 -0.0046119 -1.74742e-19)
(0.00469649 -0.00484121 -1.88106e-19)
(0.00440513 -0.00508527 -8.0702e-19)
(0.00410033 -0.00533035 -1.07625e-19)
(0.00377054 -0.00553327 0)
(0.0033815 -0.00558783 9.12307e-23)
(0.00286275 -0.00527934 -1.27125e-19)
(0.00209326 -0.00425496 1.33134e-19)
(0.000889548 -0.00204797 -5.90578e-20)
(0.00716851 -0.00276892 0)
(0.00697468 -0.00282063 0)
(0.00693051 -0.00290005 0)
(0.00680302 -0.00298154 -5.61653e-19)
(0.006682 -0.00306661 3.11511e-19)
(0.00653707 -0.003157 1.72548e-19)
(0.00637577 -0.00325265 1.90605e-19)
(0.00619603 -0.00335447 -2.10166e-19)
(0.00599764 -0.00346314 6.92118e-19)
(0.00578016 -0.00357951 -2.52798e-19)
(0.00554316 -0.00370464 0)
(0.00528624 -0.00383995 -6.00535e-19)
(0.00500918 -0.00398726 -3.00033e-22)
(0.0047121 -0.00414883 1.40618e-18)
(0.0043956 -0.00432677 -7.56305e-19)
(0.0040605 -0.00452062 1.01275e-19)
(0.00370626 -0.00472011 9.72658e-19)
(0.00332631 -0.00488812 -1.14557e-19)
(0.00289873 -0.0049299 -8.48589e-19)
(0.00237688 -0.00465311 1.2752e-19)
(0.00168105 -0.00374367 0)
(0.000690936 -0.00179134 -5.89941e-20)
(0.00705856 -0.0025051 2.03787e-19)
(0.00690548 -0.00253775 -2.27232e-19)
(0.00684021 -0.00260392 0)
(0.00671479 -0.0026671 5.64715e-19)
(0.00658732 -0.00273363 -6.26563e-19)
(0.00643737 -0.00280308 1.73202e-19)
(0.00626978 -0.00287568 -1.91664e-19)
(0.00608299 -0.00295182 0)
(0.00587662 -0.00303175 5.79718e-19)
(0.00564999 -0.00311579 -8.88513e-19)
(0.00540224 -0.00320443 5.54016e-19)
(0.00513224 -0.00329847 0)
(0.0048386 -0.00339931 0)
(0.00451979 -0.00350919 6.17658e-19)
(0.00417429 -0.00363101 -7.58937e-19)
(0.00380083 -0.00376677 4.06518e-19)
(0.00339813 -0.00391155 -4.3344e-19)
(0.00296307 -0.00403854 1.15063e-19)
(0.00248601 -0.00407121 0)
(0.00194591 -0.0038473 0)
(0.00130706 -0.00309763 0)
(0.000511778 -0.00147342 2.94716e-20)
(0.0069473 -0.00285437 -1.02078e-19)
(0.00681486 -0.00286634 0)
(0.00672659 -0.00290482 -2.54889e-19)
(0.00659592 -0.0029335 5.66758e-19)
(0.00645642 -0.00296212 -6.29133e-19)
(0.00629557 -0.00299006 3.48126e-19)
(0.00611625 -0.00301805 -3.84917e-19)
(0.00591767 -0.00304633 4.23546e-19)
(0.00569972 -0.00307484 -1.74525e-19)
(0.00546205 -0.00310324 -6.37352e-20)
(0.00520398 -0.00313099 0)
(0.00492429 -0.00315745 -3.02541e-19)
(0.00462102 -0.00318211 3.27724e-19)
(0.00429127 -0.00320509 8.84959e-20)
(0.00393121 -0.00322762 0)
(0.00353622 -0.00325198 -1.01907e-19)
(0.00310167 -0.00327877 -2.71519e-20)
(0.00262412 -0.00329719 0)
(0.00210241 -0.00326285 -3.04272e-20)
(0.00153969 -0.00306329 -3.197e-20)
(0.000951664 -0.00248592 0)
(0.000348691 -0.00121003 -2.94766e-20)
(0.00612874 -0.00193815 -3.03373e-19)
(0.00600077 -0.00195461 2.25221e-19)
(0.00585314 -0.00198494 0)
(0.00567719 -0.00200952 4.25607e-24)
(0.00548761 -0.00203428 4.71753e-24)
(0.00528144 -0.00205904 0)
(0.00506176 -0.00208422 -1.88582e-19)
(0.00482991 -0.00210982 2.07162e-19)
(0.00458757 -0.0021355 2.84209e-19)
(0.00433638 -0.00216056 -3.10491e-19)
(0.00407789 -0.00218383 0)
(0.00381338 -0.00220362 0)
(0.00354356 -0.00221772 0)
(0.00326807 -0.00222365 0)
(0.00298476 -0.00221905 -3.6858e-19)
(0.00268848 -0.00220228 3.94081e-19)
(0.00236981 -0.00217271 2.62457e-20)
(0.00201492 -0.00212828 0)
(0.0016074 -0.00205671 2.96043e-20)
(0.00112994 -0.00191572 -4.62784e-19)
(0.000612996 -0.00159228 5.15478e-19)
(0.000226084 -0.000817824 0)
(0.00723088 4.29501e-05 -1.04807e-19)
(0.00694409 5.41526e-05 0)
(0.00665813 7.07821e-05 6.46884e-20)
(0.00635961 8.66748e-05 0)
(0.0060538 0.000103248 0)
(0.00573823 0.000120177 0)
(0.00541322 0.000137486 0)
(0.00507867 0.000155132 -5.28297e-20)
(0.00473475 0.00017307 5.79524e-20)
(0.0043818 0.000191252 6.32539e-20)
(0.00402034 0.000209629 -6.88565e-20)
(0.00365099 0.000228149 0)
(0.00327454 0.000246762 4.04325e-20)
(0.00289186 0.000265407 4.35871e-20)
(0.00250396 0.000283986 -9.36192e-20)
(0.002112 0.000302249 1.00161e-19)
(0.00171758 0.000319436 -2.66683e-20)
(0.00132373 0.000333364 0)
(0.000936668 0.000338595 -5.97119e-20)
(0.000567667 0.000323545 6.27324e-20)
(0.000249326 0.000266631 6.55751e-20)
(5.80666e-05 0.000132835 -5.7815e-20)
(0.00726096 0.000475082 0)
(0.00696364 0.000487238 0)
(0.00668518 0.000518296 6.46376e-20)
(0.00638851 0.00054889 1.43275e-19)
(0.00608667 0.000583276 0)
(0.00577475 0.000620286 1.74755e-19)
(0.0054536 0.00065992 -2.88717e-19)
(0.005123 0.00070201 4.75528e-19)
(0.0047831 0.000746386 -3.47287e-19)
(0.00443426 0.000792874 -1.26384e-19)
(0.00407696 0.000841295 2.06532e-19)
(0.00371183 0.000891456 7.47069e-20)
(0.00333964 0.000943155 -4.04213e-20)
(0.00296126 0.00099615 -4.35753e-20)
(0.00257766 0.00105005 0)
(0.00218995 0.00110387 -1.00098e-19)
(0.0017995 0.00115475 7.99743e-20)
(0.00140878 0.00119459 2.2618e-19)
(0.00102257 0.00120361 -2.38778e-19)
(0.000649115 0.00114049 -2.50844e-19)
(0.000315735 0.000930527 5.24446e-19)
(9.12187e-05 0.000457174 -4.62447e-19)
(0.00733403 0.000788279 2.35724e-22)
(0.00701957 0.000813572 0)
(0.00675797 0.000867804 -3.86869e-19)
(0.00646565 0.000922652 7.14599e-19)
(0.00617191 0.000983538 -4.74302e-19)
(0.00586711 0.00104887 -3.48647e-19)
(0.00555333 0.00111848 2.88135e-19)
(0.00523014 0.00119206 -3.1623e-19)
(0.00489773 0.0012693 -1.15382e-19)
(0.00455644 0.00134988 2.52313e-19)
(0.00420674 0.0014335 0)
(0.00384926 0.00151983 -7.45644e-20)
(0.00348474 0.00160852 -3.22606e-19)
(0.00311403 0.00169918 9.0321e-23)
(0.00273805 0.00179115 -9.33078e-20)
(0.00235777 0.0018828 4.99684e-19)
(0.00197416 0.00196926 4.78993e-19)
(0.00158849 0.00203679 -3.72385e-23)
(0.00120263 0.00205166 -4.76854e-19)
(0.000818614 0.00194338 0)
(0.000453025 0.00158466 0)
(0.000159367 0.000777531 1.73352e-19)
(0.00743715 0.00113367 2.07981e-19)
(0.00709571 0.00117172 0)
(0.00685908 0.00124261 -2.56842e-19)
(0.00657328 0.00131701 -5.69297e-19)
(0.00629191 0.0013992 7.87096e-19)
(0.00599809 0.001488 -3.47551e-19)
(0.0056957 0.00158292 0)
(0.005384 0.00168359 1.17967e-22)
(0.0050632 0.00178959 -6.89926e-19)
(0.00473363 0.00190046 2.51505e-19)
(0.00439576 0.00201578 -2.73655e-19)
(0.00405018 0.00213508 4.45884e-19)
(0.00369761 0.00225789 0)
(0.00333885 0.00238364 0)
(0.00297476 0.00251143 -9.30357e-20)
(0.00260613 0.00263899 0)
(0.0022333 0.00275961 -1.06183e-19)
(0.0018558 0.00285422 0)
(0.00147116 0.00287571 -1.18896e-19)
(0.00107212 0.00272528 1.24958e-19)
(0.000658961 0.00222376 0)
(0.000261853 0.00109176 -3.46437e-19)
(0.00756976 0.00143599 -4.1395e-19)
(0.00719543 0.00149297 -4.60208e-19)
(0.00699126 0.00157953 2.55644e-19)
(0.00671432 0.00167484 -2.83054e-19)
(0.00644934 0.00177878 3.13017e-19)
(0.00617006 0.00189151 6.90816e-19)
(0.00588278 0.00201201 -3.06715e-22)
(0.00558628 0.0021399 2.08992e-19)
(0.00528084 0.00227462 -2.28664e-19)
(0.00496679 0.00241561 1.00023e-18)
(0.00464455 0.00256234 -1.08924e-18)
(0.00431471 0.00271421 1.03509e-18)
(0.00397793 0.00287064 0)
(0.00363499 0.00303091 0)
(0.00328665 0.0031939 7.41785e-19)
(0.00293345 0.00335682 -9.9227e-19)
(0.00257498 0.00351132 0)
(0.00220854 0.00363348 -6.73257e-19)
(0.00182601 0.00366374 1.06697e-18)
(0.00140784 0.00347619 -6.23201e-19)
(0.000932468 0.00284091 0)
(0.000398371 0.00139709 -5.76982e-20)
(0.00772987 0.00171378 4.10459e-19)
(0.00731733 0.00179372 4.57371e-19)
(0.00715232 0.00189227 5.072e-19)
(0.0068863 0.00200738 -2.81388e-19)
(0.00664135 0.00213102 -3.11084e-19)
(0.00637985 0.00226584 -6.86303e-19)
(0.00611106 0.00241 3.77971e-19)
(0.0058332 0.00256318 -4.14853e-19)
(0.00554663 0.00272472 4.54789e-19)
(0.00525164 0.00289396 -2.48465e-19)
(0.00494865 0.00307025 -5.40805e-19)
(0.00463819 0.00325292 -2.93748e-19)
(0.0043209 0.00344124 9.54215e-19)
(0.00399749 0.00363438 6.8616e-19)
(0.00366862 0.00383104 -1.29061e-18)
(0.00333457 0.00402798 1.97581e-19)
(0.00299407 0.0042155 1.68357e-18)
(0.00264176 0.00436549 -6.70147e-19)
(0.00226276 0.00440705 0)
(0.00182242 0.00418874 0)
(0.00127169 0.00343123 0)
(0.0005685 0.00169194 4.60832e-19)
(0.00791262 0.00195379 -8.14156e-19)
(0.0074586 0.00206147 4.53567e-19)
(0.00733834 0.00216888 1.00623e-18)
(0.00708526 0.00230322 -6.19052e-22)
(0.00686367 0.00244494 -1.23299e-18)
(0.00662297 0.00260035 -3.48343e-22)
(0.00637584 0.00276653 3.74361e-19)
(0.00611985 0.00294331 0)
(0.00585543 0.00312991 0)
(0.00558286 0.00332563 4.92338e-19)
(0.00530253 0.00352971 2.68481e-19)
(0.00501492 0.00374139 2.91553e-19)
(0.00472064 0.00395985 -9.47087e-19)
(0.00442031 0.00418416 -3.40372e-19)
(0.00411452 0.00441286 -3.65923e-19)
(0.00380324 0.00464241 -1.95938e-19)
(0.00348428 0.00486208 0)
(0.00314943 0.00504034 -2.21944e-19)
(0.00277604 0.00509639 -1.17373e-18)
(0.00231182 0.00485522 1.06106e-23)
(0.00167455 0.00398964 1.03488e-18)
(0.000771884 0.00197469 -1.14948e-19)
(0.00811351 0.00215428 -4.02634e-19)
(0.00761622 0.00229363 -4.48181e-19)
(0.00754515 0.00240638 6.16577e-22)
(0.00730681 0.0025589 -5.5072e-19)
(0.00711146 0.00271658 6.11081e-19)
(0.0068942 0.0028906 3.36031e-19)
(0.00667154 0.00307669 -3.70863e-19)
(0.00644031 0.00327492 -8.14096e-19)
(0.00620103 0.00348441 1.78472e-18)
(0.00595395 0.00370441 -4.88344e-19)
(0.00569943 0.00393409 -1.06296e-18)
(0.00543791 0.00417262 5.77295e-19)
(0.00516993 0.00441911 0)
(0.00489606 0.00467252 6.74809e-19)
(0.00461677 0.00493131 3.63062e-19)
(0.00433178 0.00519175 1.94487e-19)
(0.00403798 0.00544247 -8.2967e-19)
(0.00372417 0.00564941 1.10219e-18)
(0.00335935 0.00572356 -9.32395e-19)
(0.00287125 0.00546867 7.92243e-24)
(0.00213868 0.0045116 1.02914e-18)
(0.00100827 0.00224405 1.03275e-18)
(0.008327 0.00231194 3.79236e-23)
(0.00778628 0.00248638 -8.86788e-19)
(0.00776747 0.00260106 0)
(0.00754556 0.00277056 5.45276e-19)
(0.00737877 0.00294187 6.02965e-19)
(0.00718722 0.00313228 -6.83475e-22)
(0.00699148 0.00333589 -1.46426e-18)