/*--------------------------------*- C++ -*----------------------------------*\
| =========                 |                                                 |
| \\      /  F ield         | foam-extend: Open Source CFD                    |
|  \\    /   O peration     | Version:  3.0                                   |
|   \\  /    A nd           | Web:         http://www.extend-project.de       |
|    \\/     M anipulation  |                                                 |
\*---------------------------------------------------------------------------*/
FoamFile
{
    version     2.0;
    format      ascii;
    class       volVectorField;
    location    "0.005";
    object      U_0;
}
// * * * * * * * * * * * * * * * * * * * * * * * * * * * * * * * * * * * * * //

dimensions      [0 1 -1 0 0 0 0];

internalField   nonuniform List<vector> 
10470
(
(0.00918953 -0.000168162 7.90556e-20)
(0.00932207 -0.000127441 4.43101e-20)
(0.00954987 -0.000158434 -9.89705e-20)
(0.00976849 -0.000164173 0)
(0.0100011 -0.000176929 0)
(0.0102424 -0.00018777 -6.83539e-20)
(0.0104927 -0.00019866 7.57453e-20)
(0.0107517 -0.000209321 8.36632e-20)
(0.0110187 -0.000219756 -1.3838e-19)
(0.0112932 -0.000229963 5.0728e-20)
(0.0115747 -0.000239929 5.55039e-20)
(0.0118622 -0.00024963 6.06249e-20)
(0.0121551 -0.000259037 6.60891e-20)
(0.0124522 -0.000268102 2.20323e-24)
(0.0127513 -0.000276735 -3.87671e-20)
(0.0130455 -0.000284723 0)
(0.013311 -0.000291447 -4.46174e-20)
(0.0134753 -0.000295251 -9.0697e-25)
(0.0133473 -0.000291919 1.01014e-19)
(0.0125016 -0.00027162 -5.33509e-20)
(0.0101402 -0.000218914 0)
(0.00500046 -0.0001163 0)
(0.00915343 -0.000494075 7.8745e-20)
(0.00929145 -0.000365609 -8.82488e-20)
(0.00951627 -0.000451264 4.94289e-20)
(0.00973468 -0.000464312 1.09901e-19)
(0.00996611 -0.000499007 0)
(0.0102064 -0.000529211 -1.36188e-19)
(0.0104556 -0.000560581 3.01564e-19)
(0.0107134 -0.000592222 -4.17719e-20)
(0.0109792 -0.000624095 4.60453e-20)
(0.0112526 -0.000656146 0)
(0.0115329 -0.000688289 -2.7675e-19)
(0.0118193 -0.000720435 6.037e-20)
(0.0121111 -0.000752493 6.59133e-20)
(0.0124071 -0.000784352 -1.42717e-19)
(0.0127053 -0.000815829 -3.85967e-20)
(0.0129986 -0.000846415 0)
(0.0132634 -0.000874428 8.86912e-20)
(0.0134273 -0.000894891 9.47107e-20)
(0.0132997 -0.000894604 -1.00516e-19)
(0.0124562 -0.000842452 -1.0617e-19)
(0.0101012 -0.00068638 1.11571e-19)
(0.00497703 -0.00036155 0)
(0.00908407 -0.000813623 -1.56548e-19)
(0.00923635 -0.000599247 3.50603e-19)
(0.00945224 -0.000738984 0)
(0.00966949 -0.000759183 1.0889e-19)
(0.00989751 -0.000815603 2.4385e-19)
(0.0101349 -0.00086494 -2.70853e-19)
(0.010381 -0.000916569 -1.50367e-19)
(0.0106358 -0.000968976 -1.65965e-19)
(0.0108986 -0.00102209 1.82935e-19)
(0.011169 -0.00107579 2.00795e-19)
(0.0114463 -0.00112993 1.10364e-19)
(0.0117298 -0.00118435 0)
(0.0120187 -0.00123888 3.27634e-19)
(0.0123121 -0.00129332 -2.84134e-19)
(0.0126075 -0.00134735 -3.06747e-19)
(0.0128983 -0.00140012 4.12696e-19)
(0.0131612 -0.00144883 -8.85583e-20)
(0.0133246 -0.00148516 -1.88646e-19)
(0.0131997 -0.00148705 -1.00273e-19)
(0.0123657 -0.00140244 2.11535e-19)
(0.010031 -0.00114379 0)
(0.00494163 -0.000602089 0)
(0.00898198 -0.00112161 0)
(0.00915464 -0.000824193 -1.74551e-19)
(0.00935726 -0.00101733 3.98821e-22)
(0.00957255 -0.00104443 -4.35646e-19)
(0.00979522 -0.00112224 -8.46082e-23)
(0.0100279 -0.00119032 2.69029e-19)
(0.0102693 -0.00126183 -5.34694e-22)
(0.0105193 -0.00133465 4.94336e-19)
(0.0107773 -0.00140866 3.63643e-19)
(0.0110429 -0.00148372 -4.00318e-19)
(0.0113154 -0.00155959 0)
(0.0115943 -0.00163605 0)
(0.0118787 -0.00171284 2.6054e-19)
(0.0121677 -0.00178968 -2.82551e-19)
(0.012459 -0.00186611 -1.52455e-19)
(0.012746 -0.00194093 2.46264e-19)
(0.0130062 -0.00201026 0)
(0.0131695 -0.0020626 -3.75521e-19)
(0.0130502 -0.00206728 2.98854e-19)
(0.0122328 -0.00195174 1.05169e-19)
(0.00993135 -0.00159337 2.21446e-19)
(0.00489408 -0.000839106 -1.97229e-19)
(0.00884996 -0.00141483 -3.08114e-19)
(0.00904803 -0.00103749 0)
(0.00923362 -0.00128245 5.80289e-19)
(0.0094461 -0.00131598 -4.31703e-19)
(0.00966159 -0.0014146 2.39986e-19)
(0.009888 -0.00150081 -2.66979e-19)
(0.0101228 -0.00159166 -9.73205e-22)
(0.0103662 -0.00168435 -1.63936e-19)
(0.0106176 -0.00177878 0)
(0.0108766 -0.00187475 -6.13234e-22)
(0.0111427 -0.00197197 -2.17919e-19)
(0.0114152 -0.00207011 4.75302e-19)
(0.0116934 -0.00216887 0)
(0.0119763 -0.00226786 -1.40604e-19)
(0.0122619 -0.00236648 1.51433e-19)
(0.0125438 -0.00246324 3.26529e-19)
(0.0128004 -0.00255326 3.50007e-19)
(0.0129637 -0.00262209 -3.73397e-19)
(0.0128524 -0.00263095 0)
(0.012058 -0.00248739 3.14248e-19)
(0.00980196 -0.00203385 -4.40787e-19)
(0.00483374 -0.00107227 -9.81672e-20)
(0.00869101 -0.00168901 6.09842e-19)
(0.00891784 -0.0012356 0)
(0.00908311 -0.0015303 0)
(0.00929186 -0.00156968 4.27679e-19)
(0.00949838 -0.00168828 -1.19014e-18)
(0.00971683 -0.00179183 0)
(0.00994335 -0.00190126 -2.93917e-19)
(0.0101783 -0.00201313 -3.23996e-19)
(0.0104213 -0.00212734 0)
(0.010672 -0.00224365 -1.9709e-19)
(0.0109298 -0.00236169 -2.16071e-19)
(0.0111942 -0.00248111 7.07007e-19)
(0.0114645 -0.00260148 -5.13442e-19)
(0.0117397 -0.00272235 -4.1771e-19)
(0.0120181 -0.00284299 1.50394e-19)
(0.0122935 -0.00296165 6.25656e-23)
(0.0125456 -0.00307261 -5.2162e-19)
(0.0127092 -0.00315878 3.70961e-19)
(0.0126083 -0.00317384 0)
(0.0118434 -0.00300623 6.24863e-19)
(0.00964478 -0.00246349 -4.38426e-19)
(0.00476192 -0.00130108 -2.93738e-19)
(0.00850854 -0.00194053 -3.02585e-19)
(0.00876616 -0.00141536 -7.32045e-22)
(0.00890845 -0.00175724 7.58057e-19)
(0.00911254 -0.00180175 -4.22992e-19)
(0.00930843 -0.00193926 1.58798e-21)
(0.00951737 -0.00205912 0)
(0.00973391 -0.00218619 0)
(0.00995878 -0.00231635 1.00652e-21)
(0.0101917 -0.00244952 0)
(0.0104322 -0.00258543 0)
(0.0106799 -0.00272368 0)
(0.0109344 -0.00286383 -2.3389e-19)
(0.011195 -0.00300539 0)
(0.0114609 -0.00314782 7.799e-22)
(0.0117303 -0.0032903 5.97165e-19)
(0.0119979 -0.00343085 1.44248e-22)
(0.0122444 -0.00356309 -8.62198e-19)
(0.0124081 -0.00366768 1.83842e-19)
(0.0123199 -0.00369153 0)
(0.0115909 -0.00350494 -6.21252e-19)
(0.00946161 -0.00288047 8.71515e-19)
(0.00467991 -0.00152513 -3.90328e-19)
(0.00830662 -0.00216631 -5.96843e-19)
(0.00859584 -0.00157407 -3.35528e-19)
(0.0087131 -0.00196009 -3.73962e-19)
(0.00891165 -0.0020089 0)
(0.0090954 -0.00216395 4.66719e-19)
(0.00929333 -0.00229888 0)
(0.00949829 -0.0024424 0)
(0.00971137 -0.00258973 3.18105e-19)
(0.00993234 -0.00274085 0)
(0.0101609 -0.00289547 -3.84826e-19)
(0.0103968 -0.00305314 0)
(0.0106395 -0.00321335 0)
(0.0108886 -0.00337557 5.03475e-19)
(0.0111434 -0.00353918 9.57402e-23)
(0.0114022 -0.00370325 0)
(0.0116602 -0.00386567 0)
(0.0118999 -0.0040196 0)
(0.0120635 -0.00414389 -3.64943e-19)
(0.0119898 -0.00417962 0)
(0.0113026 -0.00398015 -4.10806e-19)
(0.0092541 -0.00328303 6.48688e-19)
(0.00458886 -0.00174412 -3.88762e-19)
(0.00808946 -0.00236408 -5.89739e-19)
(0.00841039 -0.00170981 1.32091e-18)
(0.00850114 -0.00213634 1.27854e-21)
(0.00869344 -0.00218859 4.13049e-19)
(0.00886371 -0.00235946 -4.59762e-19)
(0.00904929 -0.00250797 0)
(0.00924113 -0.0026665 5.67106e-19)
(0.00944081 -0.00282966 -6.26885e-19)
(0.00964815 -0.00299749 6.9197e-19)
(0.00986299 -0.0031697 -1.14033e-18)
(0.0100851 -0.0033458 4.17254e-19)
(0.0103142 -0.00352524 4.55696e-19)
(0.0105499 -0.00370744 2.48306e-19)
(0.0107916 -0.0038917 2.69734e-19)
(0.0110379 -0.00407704 -5.84201e-19)
(0.0112846 -0.00426126 -3.14457e-19)
(0.0115158 -0.00443724 -3.37541e-19)
(0.0116786 -0.00458262 4.71012e-22)
(0.0116206 -0.00463373 0)
(0.0109803 -0.00442847 1.01764e-18)
(0.00902361 -0.00366938 -1.07306e-18)
(0.00448964 -0.00195778 1.93256e-19)
(0.00786078 -0.00253248 -5.81029e-19)
(0.00821391 -0.00182198 -3.27037e-19)
(0.00827726 -0.00228437 3.65634e-19)
(0.00846306 -0.00233959 -4.06851e-19)
(0.00861885 -0.00252408 -9.06362e-19)
(0.0087909 -0.00268447 -4.10541e-22)
(0.00896822 -0.00285626 5.58629e-19)
(0.0091529 -0.00303359 6.17234e-19)
(0.00934489 -0.0032166 0)
(0.00954417 -0.003405 1.12608e-18)
(0.00975067 -0.00359828 -8.22735e-19)
(0.00996419 -0.00379589 4.48842e-19)
(0.0101845 -0.00399716 -2.45366e-19)
(0.010411 -0.00420135 -5.32678e-19)
(0.0106427 -0.00440744 0)
(0.0108759 -0.00461323 3.11295e-19)
(0.0110969 -0.00481154 8.58722e-22)
(0.0112574 -0.00497937 -1.77852e-19)
(0.0112155 -0.00504956 0)
(0.0106263 -0.00484641 -2.01752e-19)
(0.00877117 -0.00403758 0)
(0.00438287 -0.00216578 -1.92751e-19)
(0.00762229 -0.00267087 1.14565e-18)
(0.00800955 -0.00191149 -5.26468e-22)
(0.00804368 -0.00240173 0)
(0.00822268 -0.00245981 8.01365e-19)
(0.00836313 -0.00265443 8.93454e-19)
(0.00852073 -0.00282476 -4.95973e-19)
(0.00868252 -0.0030078 -5.50371e-19)
(0.00885104 -0.00319753 -6.09816e-19)
(0.00902636 -0.00339413 6.71014e-19)
(0.00920861 -0.00359728 0)
(0.00939785 -0.00380647 0)
(0.00959403 -0.0040211 -8.86042e-19)
(0.00979698 -0.00424047 0)
(0.0100064 -0.0044638 -2.62829e-19)
(0.0102214 -0.00469005 5.6809e-19)
(0.010439 -0.00491706 -3.06082e-19)
(0.0106474 -0.00513785 -3.28974e-19)
(0.0108038 -0.00532938 1.05752e-18)
(0.0107775 -0.00542243 0)
(0.0102419 -0.00522991 0)
(0.00849709 -0.00438509 0)
(0.00426857 -0.00236742 0)
(0.00737538 -0.00278088 0)
(0.00781253 -0.00198952 -6.33231e-19)
(0.00781963 -0.00249729 0)
(0.00799373 -0.00256339 -3.94909e-19)
(0.00811866 -0.00276444 -8.78084e-19)
(0.00826017 -0.00294273 -4.87093e-19)
(0.00840428 -0.00313394 0)
(0.0085541 -0.00333291 -1.0665e-21)
(0.00871004 -0.00353993 6.59385e-19)
(0.00887242 -0.0037548 0)
(0.0090415 -0.00397706 7.96329e-19)
(0.00921739 -0.00420612 -4.34571e-19)
(0.00940006 -0.00444127 0)
(0.00958936 -0.00468171 -1.28975e-18)
(0.00978468 -0.00492639 5.58752e-19)
(0.00998361 -0.00517324 7.40438e-22)
(0.0101763 -0.00541568 0)
(0.0103254 -0.00563125 0)
(0.0103123 -0.00575017 0)
(0.00983093 -0.00557663 0)
(0.00820301 -0.00471051 -1.03857e-18)
(0.00414754 -0.00256276 1.52063e-18)
(0.00708122 -0.00284838 5.5349e-19)
(0.00757587 -0.00203986 -6.20633e-19)
(0.00754833 -0.00252257 1.38873e-18)
(0.00771665 -0.00259688 -6.17732e-22)
(0.00782945 -0.00279532 1.26626e-21)
(0.00795802 -0.0029807 4.78841e-19)
(0.00808832 -0.00318037 5.3064e-19)
(0.00822304 -0.00339008 -5.63242e-22)
(0.00836279 -0.00360946 -6.48179e-19)
(0.008508 -0.00383811 7.1184e-19)
(0.00865906 -0.00407543 -7.81422e-19)
(0.00881625 -0.00432077 1.28095e-18)
(0.00897972 -0.00457338 0)
(0.00914944 -0.00483243 1.51967e-18)
(0.00932507 -0.00509685 -5.48663e-19)
(0.00950478 -0.00536474 -9.02953e-23)
(0.00968055 -0.00563006 6.37257e-19)
(0.00982055 -0.00587152 6.8308e-19)
(0.00981856 -0.00602039 -7.28795e-19)
(0.00939085 -0.00587532 7.74698e-19)
(0.00788496 -0.00500502 2.05326e-19)
(0.0040166 -0.0027474 -7.54315e-19)
(0.0068326 -0.00292513 -5.46021e-19)
(0.00750432 -0.00223742 6.11879e-19)
(0.00745574 -0.00267032 -2.16411e-21)
(0.00760682 -0.00277963 -7.61967e-19)
(0.00769784 -0.0029661 4.2389e-19)
(0.00779786 -0.00314731 -4.70631e-19)
(0.00789905 -0.00333959 -5.20933e-19)
(0.00800368 -0.00354279 1.15094e-18)
(0.00811284 -0.00375716 -6.34785e-19)
(0.00822722 -0.00398273 -6.97557e-19)
(0.00834741 -0.00421919 1.14792e-18)
(0.00847385 -0.00446603 -1.25609e-18)
(0.00860687 -0.00472256 -4.57341e-19)
(0.0087466 -0.00498794 4.95553e-19)
(0.0088929 -0.00526109 0)
(0.00904447 -0.00554023 -2.90879e-19)
(0.00919498 -0.00581989 3.12352e-19)
(0.0093179 -0.00608034 6.70701e-19)
(0.00931955 -0.0062553 -3.58416e-19)
(0.00893956 -0.00614132 7.61952e-19)
(0.0075549 -0.00527867 -8.0682e-19)
(0.00388148 -0.00292679 0)
(0.00607464 -0.00259899 -5.36055e-19)
(0.00692276 -0.00209736 -1.11443e-21)
(0.00694431 -0.0022838 -6.70201e-19)
(0.00709494 -0.0024225 0)
(0.00720947 -0.00260775 0)
(0.00732084 -0.00281477 8.01862e-22)
(0.00743092 -0.00303728 5.85284e-22)
(0.00754117 -0.00327362 -1.12536e-18)
(0.00765294 -0.00352241 6.20036e-19)
(0.0077671 -0.0037829 0)
(0.00788433 -0.0040544 -3.7469e-19)
(0.00800519 -0.00433619 8.18857e-19)
(0.00813014 -0.00462748 -1.33944e-18)
(0.00825948 -0.00492733 -4.85546e-19)
(0.00839329 -0.00523462 -2.52282e-22)
(0.00853065 -0.00554765 5.68478e-19)
(0.00866666 -0.00586148 -3.06495e-19)
(0.00877958 -0.00615787 -6.57084e-19)
(0.00878801 -0.00637354 3.50635e-19)
(0.00845599 -0.00630566 -3.74323e-19)
(0.00719481 -0.00547266 7.92669e-19)
(0.00372838 -0.003068 7.39486e-19)
(0.00743957 -0.00238112 -2.82219e-19)
(0.00731091 -0.00290623 -9.47193e-19)
(0.00736842 -0.00287484 7.05014e-19)
(0.00739562 -0.00300398 0)
(0.00744206 -0.00314151 0)
(0.0074891 -0.00330321 4.81901e-19)
(0.00753879 -0.00348177 -7.25044e-22)
(0.0075904 -0.0036761 1.1735e-18)
(0.0076445 -0.00388558 -6.46774e-19)
(0.00770182 -0.00410982 -6.10739e-22)
(0.00776309 -0.00434847 7.74598e-19)
(0.00782904 -0.00460103 0)
(0.00790035 -0.00486684 4.59784e-19)
(0.00797756 -0.00514497 0)
(0.00806101 -0.00543419 5.40046e-19)
(0.00815017 -0.00573243 -8.73058e-19)
(0.00824096 -0.00603414 -2.30318e-22)
(0.00831392 -0.00631978 3.34321e-19)
(0.0082937 -0.0065236 0)
(0.00796033 -0.00643932 -3.77771e-19)
(0.0067629 -0.00557562 7.96768e-19)
(0.0034907 -0.00310985 -7.39267e-19)
(0.00726168 -0.0020613 1.43858e-18)
(0.00675759 -0.00247192 4.16059e-22)
(0.00689164 -0.00253951 1.07389e-18)
(0.00689381 -0.00274063 3.98846e-19)
(0.00695351 -0.00292003 -8.84161e-19)
(0.00700676 -0.00312049 0)
(0.00706328 -0.0033331 -1.0841e-18)
(0.00711999 -0.00355914 5.97009e-19)
(0.00717708 -0.00379834 -6.56721e-19)
(0.00723492 -0.00405042 -7.20644e-19)
(0.00729402 -0.00431498 -3.94109e-19)
(0.007355 -0.00459152 -4.30052e-19)
(0.00741848 -0.00487933 -1.40558e-18)
(0.00748507 -0.00517752 1.01551e-18)
(0.00755519 -0.00548488 0)
(0.00762843 -0.00579925 -2.95935e-19)
(0.0077006 -0.00611424 -6.34623e-19)
(0.00775168 -0.00640746 1.01746e-18)
(0.00770728 -0.00660603 3.60526e-19)
(0.00735862 -0.00649457 0)
(0.00620085 -0.00558331 6.05044e-19)
(0.00316114 -0.00306414 -1.67322e-18)
(0.00710371 -0.00231217 -8.77935e-19)
(0.00667428 -0.00266581 -6.53498e-19)
(0.00686946 -0.0027537 -3.65237e-19)
(0.00684835 -0.00294468 1.21559e-18)
(0.0068896 -0.00311289 -4.48953e-19)
(0.0069136 -0.00330156 9.97051e-19)
(0.00693945 -0.00350163 6.25098e-22)
(0.00696389 -0.00371535 -1.21464e-18)
(0.00698769 -0.00394266 6.69083e-19)
(0.00701144 -0.00418351 0)
(0.00703576 -0.00443765 4.01578e-19)
(0.00706139 -0.00470466 -4.37592e-19)
(0.00708905 -0.0049839 4.75647e-19)
(0.00711946 -0.0052745 5.15953e-19)
(0.00715314 -0.00557521 5.57683e-19)
(0.00718967 -0.00588361 -6.00078e-19)
(0.00722451 -0.00619243 0)
(0.00723697 -0.00647663 -6.87411e-19)
(0.00715385 -0.00665733 7.30821e-19)
(0.00677828 -0.00651276 -1.54716e-18)
(0.00565192 -0.00555794 8.15201e-19)
(0.00283838 -0.0029998 1.86981e-19)
(0.00692494 -0.00238657 -2.96232e-19)
(0.006503 -0.00266471 -3.30555e-19)
(0.00668616 -0.00276461 0)
(0.00664655 -0.00295344 -8.24332e-19)
(0.00667439 -0.00312514 4.57693e-19)
(0.00668197 -0.00331603 -1.01413e-18)
(0.0066904 -0.00351764 5.598e-19)
(0.00669579 -0.00373221 1.00029e-21)
(0.0066989 -0.00395979 0)
(0.00670031 -0.00420042 0)
(0.00670069 -0.00445398 0)
(0.00670084 -0.00472015 0)
(0.0067016 -0.00499838 4.83449e-19)
(0.0067038 -0.00528789 -5.23601e-19)
(0.00670809 -0.00558746 -5.65641e-19)
(0.0067141 -0.0058945 9.12212e-19)
(0.00671712 -0.00620088 0)
(0.00669621 -0.00647905 3.47532e-19)
(0.0065805 -0.00664488 1.29362e-18)
(0.00618683 -0.00647246 -7.81462e-19)
(0.00510414 -0.00548532 2.05797e-19)
(0.00252423 -0.00291461 0)
(0.00675818 -0.00246636 9.37733e-22)
(0.00636807 -0.00270962 1.00999e-18)
(0.00653351 -0.00281784 3.75869e-19)
(0.00648257 -0.00299781 -4.17701e-19)
(0.0064935 -0.00316483 0)
(0.00648195 -0.00334924 5.14682e-19)
(0.00646923 -0.00354411 -1.13716e-18)
(0.00645179 -0.00375159 1.56813e-18)
(0.00643053 -0.00397189 -3.44717e-19)
(0.00640612 -0.00420517 0)
(0.00637932 -0.00445146 8.27366e-19)
(0.00635101 -0.00471054 -4.50954e-19)
(0.00632214 -0.00498198 2.44823e-19)
(0.00629368 -0.00526508 0)
(0.0062664 -0.00555863 2.8618e-19)
(0.00623998 -0.00585983 3.07767e-19)
(0.00620968 -0.00615966 3.29657e-19)
(0.00615477 -0.00642831 -1.05493e-18)
(0.0060079 -0.00657742 -3.12177e-22)
(0.00560139 -0.00637949 1.96975e-19)
(0.00457133 -0.0053704 0)
(0.00222624 -0.00281326 -1.87794e-19)
(0.0065927 -0.0025181 3.05688e-19)
(0.0062323 -0.00272741 -3.42247e-19)
(0.00636998 -0.00283736 -2.36005e-23)
(0.0063089 -0.00300647 4.23568e-19)
(0.00630231 -0.00316716 0)
(0.00627297 -0.00334374 5.21923e-19)
(0.00624044 -0.00353056 -5.76232e-19)
(0.00620158 -0.00372953 6.35703e-19)
(0.00615725 -0.00394095 -1.04912e-18)
(0.00610815 -0.00416514 7.66236e-19)
(0.00605511 -0.00440224 0)
(0.00599908 -0.00465219 -4.571e-19)
(0.00594114 -0.00491472 -2.48294e-19)
(0.00588239 -0.00518925 0)
(0.00582377 -0.00547464 -8.69505e-19)
(0.0057651 -0.0057679 6.22484e-19)
(0.00570179 -0.00605924 3.32931e-19)
(0.00561389 -0.00631688 -5.32407e-19)
(0.00543871 -0.00644954 -1.88361e-19)
(0.00502532 -0.00623082 -1.98824e-19)
(0.00405603 -0.00521261 0)
(0.00194495 -0.00269591 -5.64714e-19)
(0.00643139 -0.00255125 0)
(0.00610301 -0.00273067 3.45424e-19)
(0.00621093 -0.00283959 0)
(0.00614111 -0.00299592 0)
(0.006117 -0.00314735 0)
(0.00607043 -0.00331303 5.27738e-19)
(0.0060186 -0.00348862 -5.84025e-19)
(0.00595881 -0.00367579 1.28656e-18)
(0.00589187 -0.003875 -7.07216e-19)
(0.00581847 -0.00408668 -7.76012e-19)
(0.00573945 -0.00431115 1.27172e-18)
(0.00565582 -0.00454854 -2.30992e-19)
(0.00556878 -0.00479877 5.01801e-19)
(0.00547956 -0.00506146 -5.42755e-19)
(0.00538929 -0.00533559 2.9244e-19)
(0.00529802 -0.00561804 0)
(0.00520153 -0.00589841 0)
(0.00508121 -0.00614346 -1.07347e-18)
(0.00488 -0.00626034 7.58297e-19)
(0.00446459 -0.00602641 0)
(0.00356188 -0.00501295 0)
(0.00168105 -0.00256311 0)
(0.00627618 -0.00256571 3.13052e-19)
(0.00598096 -0.0027162 -6.99056e-19)
(0.00605888 -0.00282128 3.9026e-19)
(0.0059814 -0.00296297 6.59334e-22)
(0.0059406 -0.00310265 -4.81669e-19)
(0.00587791 -0.00325485 -5.34399e-19)
(0.00580794 -0.0034164 2.95621e-19)
(0.00572839 -0.0035888 -9.75817e-19)
(0.00563993 -0.00377261 7.1554e-19)
(0.0055432 -0.00396842 -7.83677e-19)
(0.005439 -0.00417675 -4.28515e-19)
(0.00532834 -0.00439796 2.33006e-19)
(0.00521246 -0.00463227 0)
(0.00509276 -0.00487955 0)
(0.00497056 -0.00513901 -2.9542e-19)
(0.00484623 -0.00540756 -7.9211e-19)
(0.00471616 -0.0056744 -1.69384e-19)
(0.00456363 -0.00590547 1.08079e-18)
(0.00433804 -0.00600783 -7.63167e-19)
(0.00392415 -0.00576523 6.03224e-19)
(0.00309147 -0.00477138 8.43269e-19)
(0.00143474 -0.00241474 -7.54429e-19)
(0.00613015 -0.00256248 -3.15543e-19)
(0.00586895 -0.00268502 5.50345e-22)
(0.00591803 -0.00278379 -3.93491e-19)
(0.00583417 -0.00290922 8.76774e-19)
(0.00577815 -0.00303479 -2.43203e-19)
(0.00570091 -0.00317102 0)
(0.00561444 -0.00331578 2.98188e-19)
(0.0055168 -0.00347037 -9.85488e-19)
(0.00540847 -0.00363548 7.21696e-19)
(0.00528992 -0.00381183 1.97705e-19)
(0.00516184 -0.00400014 0)
(0.00502516 -0.00420109 0)
(0.00488108 -0.00441522 0)
(0.00473106 -0.00464282 -5.52421e-19)
(0.00457661 -0.00488347 1.18975e-18)
(0.00441848 -0.00513434 1.59837e-19)
(0.00425394 -0.00538461 1.70691e-19)
(0.00406868 -0.00560015 -9.06022e-19)
(0.00381927 -0.00568953 0)
(0.00340873 -0.00544544 2.02086e-19)
(0.00264702 -0.00448685 0)
(0.00120606 -0.00225003 7.54614e-19)
(0.00599731 -0.00254644 -3.18486e-19)
(0.00577023 -0.00264174 4.16191e-22)
(0.00579256 -0.0027316 0)
(0.0057039 -0.00283916 -4.42414e-19)
(0.00563463 -0.00294835 -4.91007e-19)
(0.00554489 -0.00306619 0)
(0.00544414 -0.00319142 0)
(0.00533072 -0.00332517 1.6587e-19)
(0.00520484 -0.00346818 0)
(0.00506676 -0.00362126 3.98721e-19)
(0.00491692 -0.00378534 -2.17746e-19)
(0.004756 -0.00396137 0)
(0.00458501 -0.00415032 6.43109e-19)
(0.00440531 -0.00435299 -4.16966e-19)
(0.00421847 -0.00456959 1.49587e-19)
(0.00402564 -0.00479787 6.41987e-19)
(0.00382511 -0.00502759 -6.85191e-19)
(0.00360552 -0.00522548 7.28361e-19)
(0.00333128 -0.00530336 -8.665e-19)
(0.00292372 -0.00506543 0)
(0.00223114 -0.00415861 7.42894e-19)
(0.000995409 -0.00206879 9.42978e-20)
(0.00587646 -0.00250061 6.42632e-19)
(0.00568423 -0.00257182 5.30751e-22)
(0.00568249 -0.00265152 -4.00537e-19)
(0.00559102 -0.00274091 4.45058e-19)
(0.00551112 -0.00283265 2.47426e-19)
(0.00541157 -0.00293085 0)
(0.00529948 -0.00303493 3.0283e-19)
(0.00517339 -0.0031458 -3.33169e-19)
(0.00503324 -0.00326416 -5.49756e-19)
(0.00487897 -0.00339084 -5.11879e-22)
(0.00471065 -0.00352681 6.57467e-19)
(0.00452853 -0.00367324 -4.76991e-19)
(0.00433314 -0.00383149 3.88176e-19)
(0.00412542 -0.00400302 -1.39607e-19)
(0.00390671 -0.00418886 -1.50296e-19)
(0.00367829 -0.00438792 -6.44885e-19)
(0.00343958 -0.00459135 -8.59997e-20)
(0.00318256 -0.00476819 0)
(0.00288029 -0.00483566 9.12104e-23)
(0.00247262 -0.00461225 -1.0159e-19)
(0.00184449 -0.0037757 1.06415e-19)
(0.000801947 -0.00186435 -4.7215e-20)
(0.00578135 -0.00250741 0)
(0.00562138 -0.00255325 0)
(0.0055995 -0.00261847 0)
(0.00550727 -0.00268662 -4.48211e-19)
(0.00541944 -0.00275715 2.48618e-19)
(0.00531286 -0.00283191 1.37725e-19)
(0.00519256 -0.0029108 1.52158e-19)
(0.00505727 -0.00299449 -1.67813e-19)
(0.0049067 -0.00308351 5.52698e-19)
(0.00474049 -0.00317853 -2.01915e-19)
(0.00455821 -0.00328036 0)
(0.00435948 -0.00339012 -4.79709e-19)
(0.004144 -0.0035093 -2.74802e-22)
(0.00391176 -0.00363982 1.12337e-18)
(0.00366315 -0.0037837 -6.04216e-19)
(0.00339891 -0.0039415 8.09082e-20)
(0.00311907 -0.00410703 7.77171e-19)
(0.00281911 -0.00425388 -9.15027e-20)
(0.0024815 -0.0043079 -6.78043e-19)
(0.00206563 -0.00410533 1.01906e-19)
(0.00149288 -0.00335643 0)
(0.00062834 -0.00164942 -4.71461e-20)
(0.00568616 -0.00230431 1.62517e-19)
(0.00556273 -0.00233384 -1.81215e-19)
(0.00552303 -0.0023886 0)
(0.00543236 -0.00244165 4.50603e-19)
(0.0053396 -0.00249686 -4.99983e-19)
(0.00522905 -0.00255436 1.38197e-19)
(0.00510392 -0.00261426 -1.53003e-19)
(0.00496324 -0.00267688 0)
(0.00480661 -0.00274239 4.62857e-19)
(0.00463349 -0.00281097 -7.09466e-19)
(0.00444314 -0.00288294 4.42392e-19)
(0.00423453 -0.00295884 0)
(0.00400639 -0.00303973 0)
(0.00375726 -0.00312743 4.93368e-19)
(0.00348566 -0.00322451 -6.06209e-19)
(0.00319037 -0.00333336 3.24731e-19)
(0.00287033 -0.00345194 -3.4625e-19)
(0.00252311 -0.00356181 9.19306e-20)
(0.00214049 -0.00360324 0)
(0.001703 -0.00343735 0)
(0.00117137 -0.00281356 0)
(0.000470193 -0.0013762 2.35449e-20)
(0.00559876 -0.00264003 -8.13773e-20)
(0.00549656 -0.00265214 0)
(0.00543911 -0.0026853 -2.03306e-19)
(0.00534547 -0.00271081 4.521e-19)
(0.00524433 -0.00273579 -5.01939e-19)
(0.00512605 -0.00276012 2.77766e-19)
(0.00499255 -0.00278432 -3.07208e-19)
(0.00484338 -0.00280861 3.38039e-19)
(0.00467845 -0.00283291 -1.39318e-19)
(0.00449749 -0.00285686 -5.08976e-20)
(0.00429993 -0.00287989 0)
(0.00408469 -0.00290123 -2.41588e-19)
(0.00384995 -0.00292023 2.61697e-19)
(0.00359303 -0.00293669 7.06794e-20)
(0.00331026 -0.00295143 0)
(0.00299726 -0.00296652 -8.13995e-20)
(0.00264944 -0.0029836 -2.16855e-20)
(0.00226299 -0.00299638 0)
(0.00183546 -0.00297124 -2.43033e-20)
(0.00136741 -0.00281223 -2.55363e-20)
(0.000866957 -0.00232039 0)
(0.000326077 -0.00116529 -2.35489e-20)
(0.00498914 -0.00175283 -8.05949e-20)
(0.00489714 -0.00176792 1.79911e-19)
(0.00479248 -0.00179466 -2.00017e-19)
(0.0046634 -0.00181708 0)
(0.00452242 -0.00183965 -1.2342e-19)
(0.0043673 -0.00186236 1.36285e-19)
(0.00420024 -0.00188551 0)
(0.00402241 -0.00190912 0)
(0.00383521 -0.00193289 2.26893e-19)
(0.0036401 -0.00195619 -2.47885e-19)
(0.00343849 -0.00197796 -2.16264e-19)
(0.00323155 -0.00199661 2.34727e-19)
(0.00301995 -0.0020101 2.54213e-19)
(0.00280335 -0.00201604 -2.73971e-19)
(0.00257977 -0.0020121 -2.94416e-19)
(0.00234452 -0.00199664 3.14824e-19)
(0.00208888 -0.00196917 2.08865e-20)
(0.00179956 -0.00192881 0)
(0.00145933 -0.00186716 2.34694e-20)
(0.00104779 -0.00174984 2.4653e-20)
(0.000585788 -0.00147469 4.11972e-19)
(0.000220472 -0.000779473 -3.65203e-19)
(0.00586521 2.86005e-05 -8.49957e-20)
(0.00563328 3.77259e-05 0)
(0.00540207 5.10708e-05 5.24375e-20)
(0.00516096 6.39256e-05 0)
(0.00491375 7.72899e-05 0)
(0.00465877 9.09568e-05 0)
(0.00439612 0.000104926 0)
(0.00412577 0.000119165 -4.27974e-20)
(0.00384784 0.000133634 4.69522e-20)
(0.00356261 0.000148295 5.124e-20)
(0.0032705 0.000163106 -5.57731e-20)
(0.00297201 0.000178026 0)
(0.00266777 0.000193012 3.27469e-20)
(0.0023585 0.000208019 3.53007e-20)
(0.002045 0.000222979 -7.58184e-20)
(0.00172817 0.000237733 8.11165e-20)
(0.00140921 0.000251785 -2.15968e-20)
(0.00109027 0.000263626 0)
(0.000775758 0.000269244 -4.83556e-20)
(0.000473867 0.000259525 5.08016e-20)
(0.000210683 0.000216497 5.31034e-20)
(4.99284e-05 0.000109718 -4.68192e-20)
(0.00588994 0.000380073 0)
(0.00564914 0.000390057 0)
(0.00542399 0.000414784 5.23935e-20)
(0.00518444 0.000439446 1.16121e-19)
(0.00494038 0.000467021 0)
(0.00468833 0.000496762 1.41597e-19)
(0.00442877 0.000528615 -2.33925e-19)
(0.00416157 0.000562451 3.85247e-19)
(0.00388686 0.000598134 -2.81338e-19)
(0.00360491 0.000635524 -1.02372e-19)
(0.00331612 0.000674475 1.67291e-19)
(0.00302101 0.000714834 6.05075e-20)
(0.00272019 0.000756439 -3.27378e-20)
(0.00241436 0.000799106 -3.52911e-20)
(0.0021043 0.000842562 0)
(0.0017909 0.000886176 -8.10618e-20)
(0.00147519 0.000928052 6.47647e-20)
(0.00115894 0.000962536 1.83163e-19)
(0.000845475 0.000974817 -1.93365e-19)
(0.000540549 0.000931825 -2.03134e-19)
(0.000265756 0.000770005 4.24696e-19)
(7.79576e-05 0.000385263 -3.74489e-19)
(0.00594934 0.000632526 2.12115e-22)
(0.0056938 0.000653453 0)
(0.00548223 0.000696778 -3.13575e-19)
(0.00524637 0.00074111 5.79151e-19)
(0.00500876 0.000790097 -3.8437e-19)
(0.00476253 0.000842749 -2.82484e-19)
(0.00450893 0.00089885 2.33458e-19)
(0.00424775 0.000958165 -2.56181e-19)
(0.0039791 0.00102044 -9.34582e-20)
(0.00370327 0.00108542 2.04381e-19)
(0.00342065 0.00115286 0)
(0.00313173 0.00122249 -6.0392e-20)
(0.00283711 0.00129403 -2.61269e-19)
(0.00253749 0.00136719 8.20987e-23)
(0.00223361 0.0014415 -7.55542e-20)
(0.00192625 0.00151592 4.04656e-19)
(0.0016162 0.00158722 3.87884e-19)
(0.00130439 0.0016458 -3.44206e-23)
(0.000991952 0.00166638 -3.8615e-19)
(0.000679664 0.00159242 0)
(0.00037991 0.00131528 0)
(0.000135743 0.000657404 1.40378e-19)
(0.00603372 0.000910867 1.68637e-19)
(0.00575512 0.000942552 0)
(0.00556373 0.00099924 -2.08172e-19)
(0.00533339 0.00105946 -4.61363e-19)
(0.00510562 0.00112572 6.37805e-19)
(0.00486832 0.00119738 -2.81612e-19)
(0.0046239 0.00127399 0)
(0.00437199 0.00135526 1.05629e-22)
(0.00411272 0.00144082 -5.58834e-19)
(0.00384635 0.00153032 2.0373e-19)
(0.00357326 0.00162341 -2.21635e-19)
(0.00329394 0.00171972 3.61127e-19)
(0.00300895 0.00181887 0)
(0.00271897 0.00192042 0)
(0.00242469 0.00202374 -7.53333e-20)
(0.00212679 0.00212737 0)
(0.00182563 0.00222688 -8.59854e-20)
(0.00152092 0.00230893 0)
(0.00121058 0.00233825 -9.62726e-20)
(0.000887886 0.00223558 1.0118e-19)
(0.000551284 0.00184792 0)
(0.000222729 0.000924309 -2.80524e-19)
(0.00614215 0.00115515 -3.35638e-19)
(0.00583531 0.00120267 -3.73028e-19)
(0.00567013 0.00127185 2.07201e-19)
(0.00544728 0.00134894 -2.29367e-19)
(0.00523256 0.00143275 2.53616e-19)
(0.00500711 0.00152371 5.59655e-19)
(0.00477487 0.00162098 -2.76066e-22)
(0.00453525 0.00172421 1.69294e-19)
(0.0042884 0.00183297 -1.85191e-19)
(0.00403456 0.00194681 8.10112e-19)
(0.00377411 0.00206527 -8.82127e-19)
(0.00350749 0.00218791 8.3825e-19)
(0.00323527 0.00231422 0)
(0.00295806 0.00244368 0)
(0.00267651 0.00257549 6.00659e-19)
(0.00239114 0.00270785 -8.03467e-19)
(0.00210182 0.00283526 0)
(0.00180671 0.00294102 -5.45128e-19)
(0.00149951 0.00298058 8.63924e-19)
(0.00116366 0.00285302 -5.04604e-19)
(0.000778929 0.0023621 0)
(0.000338642 0.00118364 -4.67191e-20)
(0.00627302 0.00137877 3.32725e-19)
(0.00593342 0.0014456 3.70729e-19)
(0.00579985 0.00152438 4.11007e-19)
(0.00558624 0.00161745 -2.28026e-19)
(0.00538747 0.00171726 -2.52049e-19)
(0.00517651 0.00182608 -5.55975e-19)
(0.0049592 0.00194251 3.06182e-19)
(0.00473466 0.00206622 -3.36e-19)
(0.00450305 0.00219668 3.68345e-19)
(0.00426462 0.00233338 -2.01227e-19)
(0.00401971 0.00247578 -4.37913e-19)
(0.00376876 0.00262333 -2.37854e-19)
(0.00351227 0.00277545 7.72652e-19)
(0.00325084 0.00293151 5.55577e-19)
(0.00298503 0.00309058 -1.04497e-18)
(0.0027152 0.00325057 1.59992e-19)
(0.00244065 0.00340511 1.3631e-18)
(0.00215774 0.0035346 -5.42573e-19)
(0.00185511 0.00358613 0)
(0.00150416 0.00343855 0)
(0.00106126 0.00285366 0)
(0.000483113 0.00143401 3.73102e-19)
(0.00642239 0.00157203 -6.59922e-19)
(0.00604716 0.00166214 3.67622e-19)
(0.00594972 0.00174797 8.15362e-19)
(0.00574704 0.0018565 -5.59169e-22)
(0.00556688 0.001971 -9.98853e-19)
(0.00537287 0.00209642 -3.12543e-22)
(0.00517305 0.00223067 3.03194e-19)
(0.0049662 0.00237346 0)
(0.0047525 0.00252421 0)
(0.0045322 0.00268232 3.98655e-19)
(0.0043056 0.0028472 2.17405e-19)
(0.00407311 0.00301822 2.36069e-19)
(0.00383521 0.00319473 -7.66831e-19)
(0.00359242 0.003376 -2.75557e-19)
(0.00334526 0.003561 -2.96235e-19)
(0.00309389 0.00374744 -1.5862e-19)
(0.00283703 0.00392829 0)
(0.00256905 0.00408163 -1.79668e-19)
(0.00227292 0.00414733 -9.50189e-19)
(0.00190599 0.00398572 1.13383e-23)
(0.00139646 0.0033183 8.37789e-19)
(0.000655821 0.00167403 -9.30509e-20)
(0.00658649 0.0017331 -3.26295e-19)
(0.00617411 0.00184978 -3.63145e-19)
(0.00611636 0.00193986 5.56401e-22)
(0.00592612 0.00206296 -4.46057e-19)
(0.00576688 0.00219048 4.95074e-19)
(0.00559198 0.00233092 2.72108e-19)
(0.00541193 0.0024813 -3.0036e-19)
(0.00522511 0.00264145 -6.59216e-19)
(0.00503174 0.00281072 1.44513e-18)
(0.00483205 0.00298849 -3.95468e-19)
(0.00462631 0.0031741 -8.60627e-19)
(0.0044149 0.00336686 4.67371e-19)
(0.00419824 0.00356604 0)
(0.00397683 0.00377086 5.46278e-19)
(0.00375109 0.00398022 2.93919e-19)
(0.00352102 0.00419169 1.57445e-19)
(0.00328475 0.00439783 -6.71597e-19)
(0.00303464 0.00457507 8.92203e-19)
(0.00274754 0.0046574 -7.54717e-19)
(0.00236505 0.00448873 8.8859e-24)
(0.00178247 0.00375214 8.3305e-19)
(0.000856525 0.00190261 8.3598e-19)
(0.00676078 0.00185945 2.94485e-23)