/*--------------------------------*- C++ -*----------------------------------*\
| =========                 |                                                 |
| \\      /  F ield         | foam-extend: Open Source CFD                    |
|  \\    /   O peration     | Version:     3.1                                |
|   \\  /    A nd           | Web:         http://www.extend-project.de       |
|    \\/     M anipulation  |                                                 |
\*---------------------------------------------------------------------------*/
FoamFile
{
    version     2.0;
    format      ascii;
    class       volVectorField;
    location    "0.005";
    object      DU_0;
}
// * * * * * * * * * * * * * * * * * * * * * * * * * * * * * * * * * * * * * //

dimensions      [0 1 0 0 0 0 0];

internalField   nonuniform List<vector> 
328
(
(-1.05676e-10 3.20358e-10 0)
(-1.58411e-10 6.77313e-11 0)
(-1.57086e-10 -6.82027e-11 0)
(-9.89646e-11 -3.30263e-10 0)
(-3.28987e-10 8.20818e-10 0)
(-4.61091e-10 1.95749e-10 0)
(-4.5646e-10 -2.0111e-10 0)
(-3.08426e-10 -8.48033e-10 0)
(-5.39513e-10 1.19088e-09 0)
(-7.18363e-10 3.14397e-10 0)
(-7.09002e-10 -3.29019e-10 0)
(-5.0318e-10 -1.23489e-09 0)
(-7.58237e-10 1.45073e-09 0)
(-9.60659e-10 4.13778e-10 0)
(-9.45914e-10 -4.42148e-10 0)
(-7.05009e-10 -1.51249e-09 0)
(-9.82692e-10 1.62666e-09 0)
(-1.18555e-09 4.90241e-10 0)
(-1.16477e-09 -5.37022e-10 0)
(-9.11426e-10 -1.7086e-09 0)
(-1.21813e-09 1.73886e-09 0)
(-1.40532e-09 5.42536e-10 0)
(-1.3781e-09 -6.12808e-10 0)
(-1.12792e-09 -1.84463e-09 0)
(-1.46528e-09 1.80384e-09 0)
(-1.62461e-09 5.72276e-10 0)
(-1.59062e-09 -6.71663e-10 0)
(-1.35529e-09 -1.93821e-09 0)
(-1.72593e-09 1.83383e-09 0)
(-1.85056e-09 5.82133e-10 0)
(-1.80955e-09 -7.16961e-10 0)
(-1.59543e-09 -2.00262e-09 0)
(-2.00106e-09 1.83821e-09 0)
(-2.08801e-09 5.75455e-10 0)
(-2.03977e-09 -7.52867e-10 0)
(-1.84943e-09 -2.04828e-09 0)
(-2.292e-09 1.82381e-09 0)
(-2.34162e-09 5.55434e-10 0)
(-2.28599e-09 -7.83515e-10 0)
(-2.11866e-09 -2.08307e-09 0)
(-2.60008e-09 1.79559e-09 0)
(-2.61499e-09 5.24828e-10 0)
(-2.55183e-09 -8.12703e-10 0)
(-2.40459e-09 -2.11306e-09 0)
(-2.92696e-09 1.75689e-09 0)
(-2.91112e-09 4.85679e-10 0)
(-2.84034e-09 -8.43622e-10 0)
(-2.70896e-09 -2.14276e-09 0)
(-3.27446e-09 1.70978e-09 0)
(-3.2324e-09 4.39287e-10 0)
(-3.15395e-09 -8.78809e-10 0)
(-3.03376e-09 -2.1755e-09 0)
(-3.64465e-09 1.65531e-09 0)
(-3.58083e-09 3.86236e-10 0)
(-3.4947e-09 -9.20172e-10 0)
(-3.38118e-09 -2.21363e-09 0)
(-4.03974e-09 1.59372e-09 0)
(-3.95817e-09 3.26523e-10 0)
(-3.86442e-09 -9.69106e-10 0)
(-3.75363e-09 -2.25881e-09 0)
(-4.46207e-09 1.52471e-09 0)
(-4.36612e-09 2.59699e-10 0)
(-4.26487e-09 -1.02662e-09 0)
(-4.15369e-09 -2.3122e-09 0)
(-4.91412e-09 1.44761e-09 0)
(-4.80645e-09 1.85033e-10 0)
(-4.6979e-09 -1.09346e-09 0)
(-4.58405e-09 -2.3746e-09 0)
(-5.39845e-09 1.36154e-09 0)
(-5.28109e-09 1.01641e-10 0)
(-5.16555e-09 -1.17024e-09 0)
(-5.04759e-09 -2.44664e-09 0)
(-5.91774e-09 1.26558e-09 0)
(-5.79226e-09 8.61005e-12 0)
(-5.67013e-09 -1.2575e-09 0)
(-5.54729e-09 -2.52884e-09 0)
(-6.47479e-09 1.15885e-09 0)
(-6.34245e-09 -9.49246e-11 0)
(-6.21424e-09 -1.35571e-09 0)
(-6.08634e-09 -2.62168e-09 0)
(-7.07258e-09 1.04055e-09 0)
(-6.93445e-09 -2.0971e-10 0)
(-6.80083e-09 -1.46532e-09 0)
(-6.66809e-09 -2.72558e-09 0)
(-7.71428e-09 9.10099e-10 0)
(-7.57139e-09 -3.36326e-10 0)
(-7.43315e-09 -1.5867e-09 0)
(-7.29615e-09 -2.84088e-09 0)
(-8.42948e-09 7.61656e-10 0)
(-8.2828e-09 -4.80427e-10 0)
(-8.14075e-09 -1.72514e-09 0)
(-8.00018e-09 -2.97265e-09 0)
(-9.19613e-09 6.00092e-10 0)
(-9.047e-09 -6.37171e-10 0)
(-8.90241e-09 -1.87584e-09 0)
(-8.75943e-09 -3.11622e-09 0)
(-9.96401e-09 4.37385e-10 0)
(-9.81389e-09 -7.94958e-10 0)
(-9.66815e-09 -2.02761e-09 0)
(-9.52413e-09 -3.26095e-09 0)
(-1.07332e-08 2.74888e-10 0)
(-1.05834e-08 -9.52454e-10 0)
(-1.04378e-08 -2.17911e-09 0)
(-1.0294e-08 -3.4055e-09 0)
(-1.15038e-08 1.1385e-10 0)
(-1.13554e-08 -1.10842e-09 0)
(-1.12112e-08 -2.32912e-09 0)
(-1.10688e-08 -3.54866e-09 0)
(-1.22757e-08 -4.45878e-11 0)
(-1.213e-08 -1.26174e-09 0)
(-1.19882e-08 -2.4765e-09 0)
(-1.18483e-08 -3.6893e-09 0)
(-1.30492e-08 -1.99396e-10 0)
(-1.29071e-08 -1.41139e-09 0)
(-1.27687e-08 -2.62025e-09 0)
(-1.26322e-08 -3.82644e-09 0)
(-1.38242e-08 -3.49654e-10 0)
(-1.36865e-08 -1.55645e-09 0)
(-1.35524e-08 -2.75947e-09 0)
(-1.34202e-08 -3.95917e-09 0)
(-1.46007e-08 -4.94544e-10 0)
(-1.44682e-08 -1.69612e-09 0)
(-1.43391e-08 -2.89334e-09 0)
(-1.4212e-08 -4.08668e-09 0)
(-1.53788e-08 -6.33353e-10 0)
(-1.52522e-08 -1.82968e-09 0)
(-1.51289e-08 -3.02118e-09 0)
(-1.50075e-08 -4.20827e-09 0)
(-1.61584e-08 -7.65464e-10 0)
(-1.60384e-08 -1.95654e-09 0)
(-1.59213e-08 -3.14235e-09 0)
(-1.58063e-08 -4.32335e-09 0)
(-1.69397e-08 -8.90358e-10 0)
(-1.68266e-08 -2.07617e-09 0)
(-1.67164e-08 -3.25637e-09 0)
(-1.66082e-08 -4.43139e-09 0)
(-1.77227e-08 -1.00761e-09 0)
(-1.76169e-08 -2.18815e-09 0)
(-1.75139e-08 -3.36279e-09 0)
(-1.74129e-08 -4.53197e-09 0)
(-1.85072e-08 -1.11687e-09 0)
(-1.84092e-08 -2.29215e-09 0)
(-1.83137e-08 -3.4613e-09 0)
(-1.82202e-08 -4.62475e-09 0)
(-1.92934e-08 -1.21789e-09 0)
(-1.92033e-08 -2.3879e-09 0)
(-1.91156e-08 -3.55162e-09 0)
(-1.90299e-08 -4.70948e-09 0)
(-2.00812e-08 -1.31048e-09 0)
(-1.99992e-08 -2.47523e-09 0)
(-1.99195e-08 -3.63358e-09 0)
(-1.98418e-08 -4.78596e-09 0)
(-2.08707e-08 -1.39454e-09 0)
(-2.07969e-08 -2.55405e-09 0)
(-2.07252e-08 -3.70709e-09 0)
(-2.06555e-08 -4.85411e-09 0)
(-2.16618e-08 -1.47004e-09 0)
(-2.15962e-08 -2.6243e-09 0)
(-2.15326e-08 -3.7721e-09 0)
(-2.1471e-08 -4.91386e-09 0)
(-2.24545e-08 -1.537e-09 0)
(-2.2397e-08 -2.68604e-09 0)
(-2.23415e-08 -3.82865e-09 0)
(-2.2288e-08 -4.96525e-09 0)
(-2.32488e-08 -1.5955e-09 0)
(-2.31995e-08 -2.73933e-09 0)
(-2.31519e-08 -3.87681e-09 0)
(-2.31064e-08 -5.00836e-09 0)
(-2.40446e-08 -1.64569e-09 0)
(-2.40033e-08 -2.78433e-09 0)
(-2.39636e-08 -3.91673e-09 0)
(-2.3926e-08 -5.04331e-09 0)
(-2.48421e-08 -1.68775e-09 0)
(-2.48085e-08 -2.82121e-09 0)
(-2.47766e-08 -3.94859e-09 0)
(-2.47466e-08 -5.07029e-09 0)
(-2.56411e-08 -1.72191e-09 0)
(-2.56151e-08 -2.85021e-09 0)
(-2.55906e-08 -3.97262e-09 0)
(-2.55681e-08 -5.0895e-09 0)
(-2.64415e-08 -1.74843e-09 0)
(-2.64229e-08 -2.8716e-09 0)
(-2.64057e-08 -3.98907e-09 0)
(-2.63904e-08 -5.10122e-09 0)
(-2.72435e-08 -1.7676e-09 0)
(-2.72319e-08 -2.88566e-09 0)
(-2.72217e-08 -3.99824e-09 0)
(-2.72133e-08 -5.10571e-09 0)
(-2.80469e-08 -1.77975e-09 0)
(-2.80421e-08 -2.89271e-09 0)
(-2.80385e-08 -4.00044e-09 0)
(-2.80368e-08 -5.10329e-09 0)
(-2.88518e-08 -1.78522e-09 0)
(-2.88534e-08 -2.89311e-09 0)
(-2.88561e-08 -3.99601e-09 0)
(-2.88608e-08 -5.09429e-09 0)
(-2.96581e-08 -1.78436e-09 0)
(-2.96657e-08 -2.88719e-09 0)
(-2.96745e-08 -3.98531e-09 0)
(-2.96852e-08 -5.07906e-09 0)
(-3.04657e-08 -1.77755e-09 0)
(-3.0479e-08 -2.87534e-09 0)
(-3.04935e-08 -3.9687e-09 0)
(-3.05099e-08 -5.05794e-09 0)
(-3.12746e-08 -1.76515e-09 0)
(-3.12934e-08 -2.85793e-09 0)
(-3.13132e-08 -3.94654e-09 0)
(-3.13349e-08 -5.0313e-09 0)
(-3.20849e-08 -1.74756e-09 0)
(-3.21087e-08 -2.83532e-09 0)
(-3.21335e-08 -3.9192e-09 0)
(-3.21602e-08 -4.9995e-09 0)
(-3.28965e-08 -1.72513e-09 0)
(-3.29249e-08 -2.8079e-09 0)
(-3.29544e-08 -3.88706e-09 0)
(-3.29857e-08 -4.9629e-09 0)
(-3.37093e-08 -1.69825e-09 0)
(-3.3742e-08 -2.77604e-09 0)
(-3.37758e-08 -3.85048e-09 0)
(-3.38115e-08 -4.92186e-09 0)
(-3.45234e-08 -1.66729e-09 0)
(-3.45601e-08 -2.74009e-09 0)
(-3.45979e-08 -3.80982e-09 0)
(-3.46375e-08 -4.87673e-09 0)
(-3.53388e-08 -1.63259e-09 0)
(-3.53791e-08 -2.70041e-09 0)
(-3.54205e-08 -3.76541e-09 0)
(-3.54637e-08 -4.82784e-09 0)
(-3.61553e-08 -1.59451e-09 0)
(-3.6199e-08 -2.65734e-09 0)
(-3.62437e-08 -3.71759e-09 0)
(-3.62903e-08 -4.77552e-09 0)
(-3.69732e-08 -1.55336e-09 0)
(-3.70198e-08 -2.61119e-09 0)
(-3.70676e-08 -3.66669e-09 0)
(-3.71172e-08 -4.72008e-09 0)
(-3.77923e-08 -1.50948e-09 0)
(-3.78416e-08 -2.56229e-09 0)
(-3.78921e-08 -3.61299e-09 0)
(-3.79445e-08 -4.6618e-09 0)
(-3.86127e-08 -1.46314e-09 0)
(-3.86644e-08 -2.51091e-09 0)
(-3.87174e-08 -3.55679e-09 0)
(-3.87723e-08 -4.60097e-09 0)
(-3.94344e-08 -1.41464e-09 0)
(-3.94883e-08 -2.45734e-09 0)
(-3.95435e-08 -3.49835e-09 0)
(-3.96006e-08 -4.53784e-09 0)
(-4.02575e-08 -1.36423e-09 0)
(-4.03133e-08 -2.40182e-09 0)
(-4.03705e-08 -3.4379e-09 0)
(-4.04295e-08 -4.47264e-09 0)
(-4.1082e-08 -1.31215e-09 0)
(-4.11394e-08 -2.34459e-09 0)
(-4.11984e-08 -3.37569e-09 0)
(-4.12593e-08 -4.4056e-09 0)
(-4.19079e-08 -1.25864e-09 0)
(-4.19669e-08 -2.28586e-09 0)
(-4.20274e-08 -3.31191e-09 0)
(-4.20899e-08 -4.33691e-09 0)
(-4.27355e-08 -1.20389e-09 0)
(-4.27957e-08 -2.22583e-09 0)
(-4.28575e-08 -3.24675e-09 0)
(-4.29214e-08 -4.26676e-09 0)
(-4.35647e-08 -1.14811e-09 0)
(-4.36259e-08 -2.16469e-09 0)
(-4.3689e-08 -3.18039e-09 0)
(-4.37542e-08 -4.19529e-09 0)
(-4.43956e-08 -1.09146e-09 0)
(-4.44578e-08 -2.10259e-09 0)
(-4.45219e-08 -3.11297e-09 0)
(-4.45882e-08 -4.12266e-09 0)
(-4.52285e-08 -1.0341e-09 0)
(-4.52915e-08 -2.03969e-09 0)
(-4.53565e-08 -3.04464e-09 0)
(-4.54237e-08 -4.04899e-09 0)
(-4.60634e-08 -9.76177e-10 0)
(-4.6127e-08 -1.97611e-09 0)
(-4.61928e-08 -2.97551e-09 0)
(-4.62609e-08 -3.97438e-09 0)
(-4.69005e-08 -9.17827e-10 0)
(-4.69646e-08 -1.91197e-09 0)
(-4.7031e-08 -2.90568e-09 0)
(-4.71e-08 -3.89894e-09 0)
(-4.77399e-08 -8.59171e-10 0)
(-4.78045e-08 -1.84739e-09 0)
(-4.78715e-08 -2.83526e-09 0)
(-4.79411e-08 -3.82275e-09 0)
(-4.8582e-08 -8.00323e-10 0)
(-4.86469e-08 -1.78246e-09 0)
(-4.87143e-08 -2.76432e-09 0)
(-4.87845e-08 -3.74586e-09 0)
(-4.94269e-08 -7.41389e-10 0)
(-4.94919e-08 -1.71727e-09 0)
(-4.95598e-08 -2.69294e-09 0)
(-4.96306e-08 -3.66833e-09 0)
(-5.02748e-08 -6.82475e-10 0)
(-5.034e-08 -1.65189e-09 0)
(-5.04081e-08 -2.62117e-09 0)
(-5.04794e-08 -3.59021e-09 0)
(-5.11261e-08 -6.23685e-10 0)
(-5.11913e-08 -1.58642e-09 0)
(-5.12597e-08 -2.54905e-09 0)
(-5.13314e-08 -3.5115e-09 0)
(-5.1981e-08 -5.65138e-10 0)
(-5.20462e-08 -1.52094e-09 0)
(-5.21148e-08 -2.4766e-09 0)
(-5.21868e-08 -3.4322e-09 0)
(-5.28398e-08 -5.06972e-10 0)
(-5.29051e-08 -1.45554e-09 0)
(-5.29738e-08 -2.40385e-09 0)
(-5.30461e-08 -3.35228e-09 0)
(-5.37029e-08 -4.4935e-10 0)
(-5.37684e-08 -1.39032e-09 0)
(-5.38372e-08 -2.33076e-09 0)
(-5.39094e-08 -3.27166e-09 0)
(-5.45706e-08 -3.92298e-10 0)
(-5.46368e-08 -1.32528e-09 0)
(-5.47057e-08 -2.25743e-09 0)
(-5.47773e-08 -3.19038e-09 0)
(-5.54432e-08 -3.34936e-10 0)
(-5.55107e-08 -1.26e-09 0)
(-5.55796e-08 -2.18433e-09 0)
(-5.565e-08 -3.1094e-09 0)
(-5.63208e-08 -2.72291e-10 0)
(-5.63899e-08 -1.19294e-09 0)
(-5.64588e-08 -2.11307e-09 0)
(-5.65277e-08 -3.03373e-09 0)
)
;

boundaryField
{
    plateFix
    {
        type            fixedValue;
        value           uniform (0 0 0);
    }
    plate
    {
        type            solidTraction;
        nonLinear       updatedLagrangian;
        traction        uniform (0 0 0);
        pressure        uniform 0;
        value           nonuniform List<vector> 
168
(
(1.29888e-09 8.54834e-10 5.12853e-28)
(1.35149e-09 -8.87281e-10 7.85167e-28)
(6.91118e-10 1.37361e-09 9.2196e-28)
(7.51712e-10 -1.424e-09 8.13497e-28)
(1.49691e-10 1.77032e-09 6.48714e-28)
(2.23806e-10 -1.83818e-09 3.02597e-28)
(-3.12929e-10 2.04163e-09 -1.64541e-27)
(-2.21078e-10 -2.12718e-09 2.32664e-28)
(-7.07307e-10 2.22726e-09 5.89452e-28)
(-5.94328e-10 -2.33268e-09 -3.1781e-28)
(-1.05928e-09 2.34555e-09 -3.05945e-28)
(-9.22774e-10 -2.47424e-09 -8.94767e-28)
(-1.38473e-09 2.41569e-09 -5.3482e-28)
(-1.22289e-09 -2.57229e-09 -5.67071e-28)
(-1.69718e-09 2.44992e-09 1.56485e-28)
(-1.50865e-09 -2.64016e-09 1.36056e-27)
(-2.00584e-09 2.45806e-09 1.18875e-27)
(-1.78955e-09 -2.68871e-09 7.3156e-28)
(-2.31797e-09 2.44688e-09 -1.98736e-27)
(-2.0731e-09 -2.7258e-09 -1.01504e-27)
(-2.63918e-09 2.42133e-09 1.19792e-27)
(-2.36508e-09 -2.75747e-09 -5.9885e-28)
(-2.97412e-09 2.38469e-09 -1.30642e-28)
(-2.67032e-09 -2.7882e-09 3.22381e-28)
(-3.32671e-09 2.33902e-09 4.29522e-29)
(-2.99295e-09 -2.82129e-09 -1.07915e-28)
(-3.70041e-09 2.28539e-09 -4.61343e-28)
(-3.33663e-09 -2.85914e-09 4.44611e-30)
(-4.0983e-09 2.22412e-09 -5.41567e-29)
(-3.70471e-09 -2.90347e-09 -5.12174e-28)
(-4.52323e-09 2.15497e-09 2.46368e-28)
(-4.10031e-09 -2.95548e-09 2.70365e-28)
(-4.97788e-09 2.07734e-09 2.47728e-28)
(-4.52646e-09 -3.01609e-09 6.27822e-28)
(-5.46485e-09 1.99043e-09 -2.92823e-28)
(-4.98614e-09 -3.08597e-09 -2.57577e-28)
(-5.98678e-09 1.89336e-09 -6.44019e-30)
(-5.48243e-09 -3.16571e-09 1.04405e-29)
(-6.54637e-09 1.78528e-09 6.7884e-28)
(-6.0185e-09 -3.25583e-09 -4.13671e-30)
(-7.14646e-09 1.66544e-09 -3.82592e-28)
(-6.59775e-09 -3.35677e-09 -1.26173e-28)
(-7.79011e-09 1.53325e-09 -4.23078e-29)
(-7.22378e-09 -3.46892e-09 4.10003e-29)
(-8.50682e-09 1.38283e-09 7.65164e-30)
(-7.92627e-09 -3.59724e-09 2.4118e-29)
(-9.27435e-09 1.219e-09 3.65163e-28)
(-8.68454e-09 -3.73709e-09 -1.42657e-28)
(-1.00424e-08 1.05398e-09 -2.60782e-28)
(-9.44895e-09 -3.87815e-09 2.54417e-28)
(-1.08111e-08 8.89117e-10 -4.67738e-28)
(-1.02192e-08 -4.0191e-09 -6.34479e-29)
(-1.15806e-08 7.25663e-10 4.38214e-28)
(-1.09949e-08 -4.1587e-09 -1.1736e-30)
(-1.2351e-08 5.64772e-10 -3.47599e-28)
(-1.17759e-08 -4.29587e-09 2.76373e-28)
(-1.31224e-08 4.07478e-10 3.92976e-28)
(-1.25617e-08 -4.42959e-09 -4.05029e-28)
(-1.38949e-08 2.54707e-10 -3.26678e-28)
(-1.33521e-08 -4.55898e-09 6.34101e-29)
(-1.46685e-08 1.0728e-10 -1.20646e-28)
(-1.41467e-08 -4.68323e-09 -2.39136e-29)
(-1.54434e-08 -3.40846e-11 2.74406e-28)
(-1.49453e-08 -4.80164e-09 1.35324e-28)
(-1.62196e-08 -1.68769e-10 -8.82069e-29)
(-1.57474e-08 -4.91361e-09 -1.73659e-28)
(-1.69972e-08 -2.96251e-10 -1.17411e-28)
(-1.65529e-08 -5.01861e-09 3.0363e-29)
(-1.77762e-08 -4.16098e-10 1.40134e-28)
(-1.73614e-08 -5.11623e-09 2.50757e-29)
(-1.85566e-08 -5.27967e-10 6.11592e-29)
(-1.81727e-08 -5.20612e-09 2.4423e-28)
(-1.93387e-08 -6.31599e-10 -2.00357e-28)
(-1.89865e-08 -5.28802e-09 -2.94978e-28)
(-2.01222e-08 -7.26811e-10 1.08864e-28)
(-1.98024e-08 -5.36175e-09 7.08164e-30)
(-2.09074e-08 -8.13497e-10 -8.70168e-29)
(-2.06203e-08 -5.4272e-09 8.76474e-29)
(-2.16942e-08 -8.91619e-10 1.31024e-28)
(-2.144e-08 -5.48433e-09 -9.20651e-29)
(-2.24827e-08 -9.61201e-10 1.82814e-28)
(-2.22612e-08 -5.53314e-09 -8.73897e-30)
(-2.32728e-08 -1.02233e-09 -2.43055e-28)
(-2.30836e-08 -5.57373e-09 -4.38679e-29)
(-2.40645e-08 -1.07513e-09 -5.38839e-29)
(-2.39072e-08 -5.60621e-09 1.03735e-28)
(-2.4858e-08 -1.11981e-09 1.37185e-28)
(-2.47318e-08 -5.63076e-09 -1.91628e-28)
(-2.56531e-08 -1.15657e-09 -6.23482e-29)
(-2.55571e-08 -5.6476e-09 1.26176e-28)
(-2.64498e-08 -1.18569e-09 6.80727e-29)
(-2.6383e-08 -5.65697e-09 -4.06355e-29)
(-2.72482e-08 -1.20746e-09 4.9179e-29)
(-2.72095e-08 -5.65915e-09 1.55592e-28)
(-2.80482e-08 -1.22219e-09 -2.08026e-28)
(-2.80364e-08 -5.65445e-09 -1.72314e-28)
(-2.88498e-08 -1.23023e-09 3.03901e-28)
(-2.88636e-08 -5.6432e-09 -2.82729e-29)
(-2.9653e-08 -1.23195e-09 -1.02246e-28)
(-2.9691e-08 -5.62573e-09 2.36101e-28)
(-3.04577e-08 -1.22769e-09 1.20894e-28)
(-3.05185e-08 -5.60239e-09 3.43388e-29)
(-3.12639e-08 -1.21785e-09 -1.87805e-28)
(-3.13462e-08 -5.57355e-09 -9.4361e-29)
(-3.20717e-08 -1.20279e-09 -4.61271e-29)
(-3.21739e-08 -5.53955e-09 1.15124e-28)
(-3.2881e-08 -1.18291e-09 -2.77803e-29)
(-3.30018e-08 -5.50075e-09 -1.7603e-28)
(-3.36917e-08 -1.15857e-09 2.21735e-29)
(-3.38297e-08 -5.45752e-09 -2.22725e-29)
(-3.45038e-08 -1.13013e-09 -9.84927e-29)
(-3.46576e-08 -5.41018e-09 1.00216e-28)
(-3.53174e-08 -1.09797e-09 1.41116e-28)
(-3.54857e-08 -5.35908e-09 -1.28103e-28)
(-3.61323e-08 -1.06242e-09 -5.0775e-29)
(-3.63139e-08 -5.30454e-09 1.7168e-29)
(-3.69487e-08 -1.02381e-09 9.92171e-29)
(-3.71423e-08 -5.24685e-09 1.4937e-28)
(-3.77665e-08 -9.82464e-10 -4.24929e-29)
(-3.79709e-08 -5.18631e-09 -9.75117e-29)
(-3.85858e-08 -9.38682e-10 5.33416e-29)
(-3.87999e-08 -5.12318e-09 1.406e-29)
(-3.94064e-08 -8.92745e-10 -6.86735e-29)
(-3.96293e-08 -5.05773e-09 4.9119e-29)
(-4.02286e-08 -8.44919e-10 -3.29516e-29)
(-4.04592e-08 -4.99018e-09 -7.41895e-29)
(-4.10523e-08 -7.95451e-10 1.3369e-28)
(-4.12898e-08 -4.92074e-09 3.11832e-29)
(-4.18776e-08 -7.44572e-10 -7.46202e-29)
(-4.21212e-08 -4.84961e-09 2.72611e-29)
(-4.27046e-08 -6.92492e-10 4.21194e-29)
(-4.29535e-08 -4.77697e-09 -5.81979e-29)
(-4.35333e-08 -6.39408e-10 -1.03622e-28)
(-4.37868e-08 -4.70296e-09 4.86729e-29)
(-4.43638e-08 -5.85501e-10 2.47465e-29)
(-4.46214e-08 -4.62773e-09 6.22939e-29)
(-4.51964e-08 -5.30934e-10 -1.32981e-29)
(-4.54574e-08 -4.5514e-09 -1.71473e-29)
(-4.6031e-08 -4.75861e-10 5.32634e-29)
(-4.6295e-08 -4.47406e-09 -5.4721e-29)
(-4.68679e-08 -4.20421e-10 -4.02389e-29)
(-4.71345e-08 -4.39582e-09 1.00826e-29)
(-4.77072e-08 -3.64745e-10 1.98122e-29)
(-4.7976e-08 -4.31674e-09 -4.41999e-29)
(-4.85492e-08 -3.08955e-10 9.68969e-30)
(-4.88197e-08 -4.23688e-09 2.5401e-29)
(-4.93941e-08 -2.53166e-10 1.73154e-30)
(-4.9666e-08 -4.15628e-09 -3.85069e-29)
(-5.0242e-08 -1.97493e-10 -2.18235e-29)
(-5.05151e-08 -4.07498e-09 5.61838e-29)
(-5.10934e-08 -1.42052e-10 8.57168e-30)
(-5.13674e-08 -3.99298e-09 -1.42287e-29)
(-5.19484e-08 -8.69729e-11 1.56328e-29)
(-5.22231e-08 -3.91027e-09 -6.08489e-30)
(-5.28074e-08 -3.24052e-11 -2.85203e-29)
(-5.30826e-08 -3.82679e-09 7.06304e-30)
(-5.36707e-08 2.14723e-11 2.94692e-30)
(-5.39463e-08 -3.74245e-09 -5.24917e-30)
(-5.45383e-08 7.46264e-11 1.35749e-30)
(-5.48141e-08 -3.65731e-09 -1.36637e-29)
(-5.54094e-08 1.27918e-10 3.03569e-30)
(-5.56853e-08 -3.57228e-09 1.85441e-29)
(-5.62814e-08 1.8696e-10 -2.78758e-30)
(-5.67609e-08 -2.33346e-10 2.31186e-30)
(-5.68294e-08 -1.15795e-09 1.91158e-30)
(-5.68984e-08 -2.07899e-09 -1.20643e-30)
(-5.69678e-08 -3.00352e-09 -3.13662e-30)
(-5.65573e-08 -3.49302e-09 -4.61405e-31)
)
;
    }
    frontAndBackPlanes
    {
        type            empty;
    }
}


// ************************************************************************* //
