/*--------------------------------*- C++ -*----------------------------------*\
| =========                 |                                                 |
| \\      /  F ield         | foam-extend: Open Source CFD                    |
|  \\    /   O peration     | Version:     3.1                                |
|   \\  /    A nd           | Web:         http://www.extend-project.de       |
|    \\/     M anipulation  |                                                 |
\*---------------------------------------------------------------------------*/
FoamFile
{
    version     2.0;
    format      ascii;
    class       volVectorField;
    location    "0.005";
    object      DV_0;
}
// * * * * * * * * * * * * * * * * * * * * * * * * * * * * * * * * * * * * * //

dimensions      [0 1 -1 0 0 0 0];

internalField   nonuniform List<vector> 
328
(
(4.6519e-08 1.36832e-07 0)
(2.40988e-08 2.90755e-08 0)
(2.46112e-08 -2.89858e-08 0)
(4.91073e-08 -1.40443e-07 0)
(1.41085e-07 3.50358e-07 0)
(8.49687e-08 8.39793e-08 0)
(8.67636e-08 -8.52057e-08 0)
(1.49024e-07 -3.60173e-07 0)
(2.54821e-07 5.08034e-07 0)
(1.78899e-07 1.34858e-07 0)
(1.82537e-07 -1.39033e-07 0)
(2.68872e-07 -5.23776e-07 0)
(3.79761e-07 6.18639e-07 0)
(2.93861e-07 1.77546e-07 0)
(2.99602e-07 -1.86335e-07 0)
(4.00377e-07 -6.40601e-07 0)
(5.18012e-07 6.93548e-07 0)
(4.31915e-07 2.10543e-07 0)
(4.4002e-07 -2.25675e-07 0)
(5.45658e-07 -7.22578e-07 0)
(6.68469e-07 7.41477e-07 0)
(5.88953e-07 2.33376e-07 0)
(5.99586e-07 -2.56732e-07 0)
(7.03523e-07 -7.78902e-07 0)
(8.32036e-07 7.69542e-07 0)
(7.64201e-07 2.46782e-07 0)
(7.77505e-07 -2.80452e-07 0)
(8.74855e-07 -8.17127e-07 0)
(1.00926e-06 7.83004e-07 0)
(9.55942e-07 2.51941e-07 0)
(9.72028e-07 -2.98287e-07 0)
(1.06017e-06 -8.4292e-07 0)
(1.20112e-06 7.85884e-07 0)
(1.16353e-06 2.50309e-07 0)
(1.1825e-06 -3.12013e-07 0)
(1.26042e-06 -8.60714e-07 0)
(1.40855e-06 7.81109e-07 0)
(1.38651e-06 2.43261e-07 0)
(1.40844e-06 -3.23384e-07 0)
(1.47654e-06 -8.73857e-07 0)
(1.6326e-06 7.70787e-07 0)
(1.62498e-06 2.31978e-07 0)
(1.64996e-06 -3.34006e-07 0)
(1.70954e-06 -8.8491e-07 0)
(1.87429e-06 7.5633e-07 0)
(1.87943e-06 2.17327e-07 0)
(1.90753e-06 -3.45224e-07 0)
(1.96043e-06 -8.95776e-07 0)
(2.1347e-06 7.38606e-07 0)
(2.15072e-06 1.99847e-07 0)
(2.182e-06 -3.58111e-07 0)
(2.23026e-06 -9.07857e-07 0)
(2.41496e-06 7.18034e-07 0)
(2.44002e-06 1.79767e-07 0)
(2.47454e-06 -3.73481e-07 0)
(2.52011e-06 -9.2216e-07 0)
(2.71624e-06 6.94693e-07 0)
(2.74874e-06 1.57054e-07 0)
(2.78653e-06 -3.91941e-07 0)
(2.83115e-06 -9.39405e-07 0)
(3.03987e-06 6.68408e-07 0)
(3.07847e-06 1.31474e-07 0)
(3.11958e-06 -4.13956e-07 0)
(3.16462e-06 -9.60113e-07 0)
(3.38726e-06 6.38836e-07 0)
(3.43095e-06 1.02653e-07 0)
(3.47538e-06 -4.39904e-07 0)
(3.5219e-06 -9.84692e-07 0)
(3.75997e-06 6.05528e-07 0)
(3.80803e-06 7.01304e-08 0)
(3.85576e-06 -4.7013e-07 0)
(3.90448e-06 -1.0135e-06 0)
(4.15972e-06 5.67979e-07 0)
(4.21162e-06 3.34021e-08 0)
(4.26263e-06 -5.04981e-07 0)
(4.31398e-06 -1.04687e-06 0)
(4.58837e-06 5.25663e-07 0)
(4.64376e-06 -8.05422e-09 0)
(4.69797e-06 -5.44825e-07 0)
(4.75218e-06 -1.08518e-06 0)
(5.04797e-06 4.78053e-07 0)
(5.10656e-06 -5.47584e-08 0)
(5.16386e-06 -5.90058e-07 0)
(5.221e-06 -1.12881e-06 0)
(5.54069e-06 4.24638e-07 0)
(5.60226e-06 -1.07216e-07 0)
(5.6625e-06 -6.41093e-07 0)
(5.7225e-06 -1.17817e-06 0)
(6.08907e-06 3.62667e-07 0)
(6.15346e-06 -1.68139e-07 0)
(6.21654e-06 -7.00533e-07 0)
(6.27935e-06 -1.23579e-06 0)
(6.6758e-06 2.93669e-07 0)
(6.74267e-06 -2.36024e-07 0)
(6.80827e-06 -7.66893e-07 0)
(6.87362e-06 -1.30024e-06 0)
(7.26226e-06 2.22487e-07 0)
(7.33112e-06 -3.06109e-07 0)
(7.39875e-06 -8.35494e-07 0)
(7.46613e-06 -1.36697e-06 0)
(7.84846e-06 1.49568e-07 0)
(7.91884e-06 -3.7793e-07 0)
(7.98802e-06 -9.05848e-07 0)
(8.05695e-06 -1.43548e-06 0)
(8.43439e-06 7.53767e-08 0)
(8.50583e-06 -4.5102e-07 0)
(8.57609e-06 -9.7748e-07 0)
(8.6461e-06 -1.50528e-06 0)
(9.02005e-06 3.71412e-10 0)
(9.0921e-06 -5.24918e-07 0)
(9.16298e-06 -1.04992e-06 0)
(9.2336e-06 -1.5759e-06 0)
(9.60542e-06 -7.50007e-08 0)
(9.67762e-06 -5.99169e-07 0)
(9.74868e-06 -1.12272e-06 0)
(9.81946e-06 -1.64688e-06 0)
(1.01904e-05 -1.50301e-07 0)
(1.02624e-05 -6.73326e-07 0)
(1.03332e-05 -1.19541e-06 0)
(1.04037e-05 -1.71775e-06 0)
(1.07751e-05 -2.25101e-07 0)
(1.08463e-05 -7.46952e-07 0)
(1.09165e-05 -1.26754e-06 0)
(1.09862e-05 -1.78806e-06 0)
(1.13593e-05 -2.98986e-07 0)
(1.14295e-05 -8.1962e-07 0)
(1.14985e-05 -1.33869e-06 0)
(1.15671e-05 -1.85737e-06 0)
(1.19429e-05 -3.71552e-07 0)
(1.20116e-05 -8.90918e-07 0)
(1.20792e-05 -1.40843e-06 0)
(1.21462e-05 -1.92524e-06 0)
(1.25259e-05 -4.42418e-07 0)
(1.25928e-05 -9.60449e-07 0)
(1.26585e-05 -1.47636e-06 0)
(1.27236e-05 -1.99127e-06 0)
(1.31081e-05 -5.11218e-07 0)
(1.31728e-05 -1.02784e-06 0)
(1.32363e-05 -1.54208e-06 0)
(1.32992e-05 -2.05505e-06 0)
(1.36894e-05 -5.77613e-07 0)
(1.37516e-05 -1.09273e-06 0)
(1.38126e-05 -1.60524e-06 0)
(1.38728e-05 -2.11621e-06 0)
(1.42696e-05 -6.41289e-07 0)
(1.43291e-05 -1.15481e-06 0)
(1.43872e-05 -1.6655e-06 0)
(1.44444e-05 -2.17441e-06 0)
(1.48485e-05 -7.0196e-07 0)
(1.49049e-05 -1.21376e-06 0)
(1.49599e-05 -1.72255e-06 0)
(1.5014e-05 -2.22933e-06 0)
(1.5426e-05 -7.59372e-07 0)
(1.54791e-05 -1.26933e-06 0)
(1.55307e-05 -1.7761e-06 0)
(1.55813e-05 -2.28067e-06 0)
(1.60017e-05 -8.13304e-07 0)
(1.60514e-05 -1.32127e-06 0)
(1.60994e-05 -1.82591e-06 0)
(1.61462e-05 -2.32817e-06 0)
(1.65755e-05 -8.63569e-07 0)
(1.66215e-05 -1.36939e-06 0)
(1.66658e-05 -1.87176e-06 0)
(1.67086e-05 -2.37162e-06 0)
(1.71471e-05 -9.10016e-07 0)
(1.71893e-05 -1.41352e-06 0)
(1.72296e-05 -1.91349e-06 0)
(1.72684e-05 -2.41082e-06 0)
(1.77161e-05 -9.52527e-07 0)
(1.77544e-05 -1.45354e-06 0)
(1.77907e-05 -1.95094e-06 0)
(1.78252e-05 -2.4456e-06 0)
(1.82823e-05 -9.91024e-07 0)
(1.83166e-05 -1.48934e-06 0)
(1.83488e-05 -1.98401e-06 0)
(1.8379e-05 -2.47586e-06 0)
(1.88454e-05 -1.02546e-06 0)
(1.88757e-05 -1.52087e-06 0)
(1.89037e-05 -2.01262e-06 0)
(1.89295e-05 -2.5015e-06 0)
(1.94049e-05 -1.05582e-06 0)
(1.94312e-05 -1.54811e-06 0)
(1.9455e-05 -2.03673e-06 0)
(1.94763e-05 -2.52247e-06 0)
(1.99606e-05 -1.08213e-06 0)
(1.99829e-05 -1.57105e-06 0)
(2.00024e-05 -2.05634e-06 0)
(2.00193e-05 -2.53874e-06 0)
(2.0512e-05 -1.10444e-06 0)
(2.05303e-05 -1.58975e-06 0)
(2.05457e-05 -2.07147e-06 0)
(2.05581e-05 -2.55031e-06 0)
(2.10587e-05 -1.12283e-06 0)
(2.10731e-05 -1.60425e-06 0)
(2.10844e-05 -2.08216e-06 0)
(2.10925e-05 -2.55722e-06 0)
(2.16004e-05 -1.13739e-06 0)
(2.1611e-05 -1.61466e-06 0)
(2.16182e-05 -2.08849e-06 0)
(2.16219e-05 -2.55952e-06 0)
(2.21364e-05 -1.14827e-06 0)
(2.21433e-05 -1.62108e-06 0)
(2.21466e-05 -2.09055e-06 0)
(2.2146e-05 -2.55729e-06 0)
(2.26664e-05 -1.15561e-06 0)
(2.26698e-05 -1.62364e-06 0)
(2.26692e-05 -2.08846e-06 0)
(2.26645e-05 -2.55063e-06 0)
(2.31899e-05 -1.15957e-06 0)
(2.31899e-05 -1.62251e-06 0)
(2.31856e-05 -2.08236e-06 0)
(2.31769e-05 -2.53964e-06 0)
(2.37063e-05 -1.16034e-06 0)
(2.3703e-05 -1.61784e-06 0)
(2.36952e-05 -2.07239e-06 0)
(2.36826e-05 -2.52446e-06 0)
(2.42151e-05 -1.15811e-06 0)
(2.42088e-05 -1.60981e-06 0)
(2.41976e-05 -2.0587e-06 0)
(2.41811e-05 -2.50522e-06 0)
(2.47157e-05 -1.15308e-06 0)
(2.47065e-05 -1.5986e-06 0)
(2.46921e-05 -2.04146e-06 0)
(2.4672e-05 -2.48207e-06 0)
(2.52076e-05 -1.14546e-06 0)
(2.51957e-05 -1.58441e-06 0)
(2.51782e-05 -2.02085e-06 0)
(2.51547e-05 -2.45516e-06 0)
(2.569e-05 -1.13547e-06 0)
(2.56757e-05 -1.56743e-06 0)
(2.56553e-05 -1.99705e-06 0)
(2.56284e-05 -2.42464e-06 0)
(2.61624e-05 -1.12332e-06 0)
(2.61458e-05 -1.54786e-06 0)
(2.61227e-05 -1.97021e-06 0)
(2.60927e-05 -2.39066e-06 0)
(2.66241e-05 -1.10923e-06 0)
(2.66054e-05 -1.52589e-06 0)
(2.65798e-05 -1.94054e-06 0)
(2.65468e-05 -2.35339e-06 0)
(2.70743e-05 -1.09343e-06 0)
(2.70538e-05 -1.50174e-06 0)
(2.70258e-05 -1.9082e-06 0)
(2.699e-05 -2.31297e-06 0)
(2.75124e-05 -1.07613e-06 0)
(2.74902e-05 -1.47559e-06 0)
(2.746e-05 -1.87336e-06 0)
(2.74215e-05 -2.26956e-06 0)
(2.79375e-05 -1.05755e-06 0)
(2.79138e-05 -1.44763e-06 0)
(2.78817e-05 -1.83619e-06 0)
(2.78406e-05 -2.22329e-06 0)
(2.83488e-05 -1.03789e-06 0)
(2.83239e-05 -1.41806e-06 0)
(2.82899e-05 -1.79686e-06 0)
(2.82464e-05 -2.17432e-06 0)
(2.87456e-05 -1.01737e-06 0)
(2.87195e-05 -1.38706e-06 0)
(2.86839e-05 -1.75554e-06 0)
(2.86382e-05 -2.12277e-06 0)
(2.91268e-05 -9.96193e-07 0)
(2.90999e-05 -1.35481e-06 0)
(2.90627e-05 -1.71236e-06 0)
(2.90149e-05 -2.06878e-06 0)
(2.94916e-05 -9.74563e-07 0)
(2.9464e-05 -1.32148e-06 0)
(2.94255e-05 -1.6675e-06 0)
(2.93757e-05 -2.01246e-06 0)
(2.98391e-05 -9.52678e-07 0)
(2.9811e-05 -1.28726e-06 0)
(2.97713e-05 -1.62108e-06 0)
(2.97197e-05 -1.95394e-06 0)
(3.01682e-05 -9.30734e-07 0)
(3.01397e-05 -1.2523e-06 0)
(3.0099e-05 -1.57325e-06 0)
(3.00457e-05 -1.89333e-06 0)
(3.04779e-05 -9.08922e-07 0)
(3.04492e-05 -1.21677e-06 0)
(3.04076e-05 -1.52415e-06 0)
(3.03527e-05 -1.83074e-06 0)
(3.07671e-05 -8.87432e-07 0)
(3.07385e-05 -1.18083e-06 0)
(3.06961e-05 -1.4739e-06 0)
(3.06397e-05 -1.76626e-06 0)
(3.10347e-05 -8.6645e-07 0)
(3.10062e-05 -1.14464e-06 0)
(3.09632e-05 -1.42263e-06 0)
(3.09055e-05 -1.69998e-06 0)
(3.12795e-05 -8.46159e-07 0)
(3.12514e-05 -1.10835e-06 0)
(3.12079e-05 -1.37046e-06 0)
(3.11488e-05 -1.63199e-06 0)
(3.15003e-05 -8.26737e-07 0)
(3.14727e-05 -1.0721e-06 0)
(3.14288e-05 -1.3175e-06 0)
(3.13685e-05 -1.56237e-06 0)
(3.16959e-05 -8.08363e-07 0)
(3.16689e-05 -1.03603e-06 0)
(3.16248e-05 -1.26384e-06 0)
(3.15633e-05 -1.49117e-06 0)
(3.18649e-05 -7.91209e-07 0)
(3.18386e-05 -1.00028e-06 0)
(3.17943e-05 -1.20957e-06 0)
(3.17319e-05 -1.41844e-06 0)
(3.2006e-05 -7.7547e-07 0)
(3.19805e-05 -9.64998e-07 0)
(3.19362e-05 -1.15475e-06 0)
(3.18727e-05 -1.34419e-06 0)
(3.21177e-05 -7.61306e-07 0)
(3.20931e-05 -9.30306e-07 0)
(3.20487e-05 -1.09944e-06 0)
(3.19844e-05 -1.26844e-06 0)
(3.21989e-05 -7.49015e-07 0)
(3.21749e-05 -8.96375e-07 0)
(3.21305e-05 -1.0436e-06 0)
(3.20656e-05 -1.19101e-06 0)
(3.22474e-05 -7.38459e-07 0)
(3.22237e-05 -8.63175e-07 0)
(3.21793e-05 -9.87383e-07 0)
(3.21143e-05 -1.11217e-06 0)
(3.22634e-05 -7.29581e-07 0)
(3.22392e-05 -8.30591e-07 0)
(3.21949e-05 -9.30968e-07 0)
(3.21305e-05 -1.03205e-06 0)
(3.22413e-05 -7.16017e-07 0)
(3.22161e-05 -7.96748e-07 0)
(3.21718e-05 -8.7625e-07 0)
(3.21086e-05 -9.57092e-07 0)
)
;

boundaryField
{
    plateFix
    {
        type            calculated;
        value           uniform (0 0 0);
    }
    plate
    {
        type            calculated;
        value           nonuniform List<vector> 
168
(
(6.45633e-07 3.65557e-07 2.27851e-24)
(6.65794e-07 -3.77991e-07 -1.01032e-24)
(5.75479e-07 5.86832e-07 -1.77113e-24)
(5.98653e-07 -6.05727e-07 4.78442e-24)
(5.47693e-07 7.55792e-07 -6.0062e-25)
(5.7602e-07 -7.80888e-07 -4.95379e-25)
(5.68606e-07 8.71204e-07 -3.67579e-24)
(6.0374e-07 -9.02508e-07 -1.35729e-24)
(6.34631e-07 9.50164e-07 4.08692e-24)
(6.77918e-07 -9.88441e-07 9.12274e-25)
(7.35763e-07 1.00061e-06 -2.62328e-24)
(7.88173e-07 -1.04709e-06 -3.63506e-24)
(8.66362e-07 1.0308e-06 1.55423e-24)
(9.28646e-07 -1.0872e-06 2.65882e-24)
(1.02191e-06 1.04601e-06 4.29547e-25)
(1.09466e-06 -1.11447e-06 1.53915e-24)
(1.19985e-06 1.05044e-06 1.66718e-24)
(1.28356e-06 -1.13352e-06 1.64292e-24)
(1.39857e-06 1.04699e-06 -4.68182e-24)
(1.49367e-06 -1.14769e-06 -2.70273e-24)
(1.61729e-06 1.03778e-06 2.63197e-24)
(1.72415e-06 -1.15953e-06 -1.01886e-24)
(1.85575e-06 1.02419e-06 -6.06961e-25)
(1.97472e-06 -1.17093e-06 6.17398e-26)
(2.11414e-06 1.00709e-06 1.26937e-25)
(2.24552e-06 -1.1833e-06 3.41503e-25)
(2.39298e-06 9.86914e-07 -1.13168e-24)
(2.53702e-06 -1.19764e-06 -8.45917e-25)
(2.6931e-06 9.63765e-07 -1.04059e-25)
(2.85001e-06 -1.21471e-06 -4.95742e-25)
(3.01559e-06 9.37505e-07 8.04326e-25)
(3.18551e-06 -1.23507e-06 1.03699e-24)
(3.36179e-06 9.07825e-07 7.52315e-25)
(3.54477e-06 -1.25915e-06 5.04655e-25)
(3.73322e-06 8.74306e-07 -2.45476e-25)
(3.92923e-06 -1.28734e-06 -1.10947e-25)
(4.13161e-06 8.36471e-07 -4.23994e-25)
(4.3405e-06 -1.32002e-06 -5.68498e-26)
(4.55887e-06 7.93811e-07 1.59191e-24)
(4.78037e-06 -1.35756e-06 -3.60603e-25)
(5.01706e-06 7.45814e-07 -1.07263e-24)
(5.25076e-06 -1.40036e-06 8.88066e-25)
(5.50843e-06 6.91974e-07 8.0295e-25)
(5.75371e-06 -1.44883e-06 -5.31677e-25)
(6.05551e-06 6.29531e-07 -9.41458e-25)
(6.31195e-06 -1.50549e-06 -2.00663e-25)
(6.64106e-06 5.60022e-07 9.47277e-25)
(6.90748e-06 -1.56893e-06 4.59583e-27)
(7.22657e-06 4.88336e-07 -2.94831e-25)
(7.501e-06 -1.63467e-06 4.24183e-25)
(7.81205e-06 4.14909e-07 -6.84245e-25)
(8.09257e-06 -1.70219e-06 1.29457e-26)
(8.39749e-06 3.40208e-07 7.93255e-25)
(8.68223e-06 -1.77101e-06 -4.27141e-25)
(8.98288e-06 2.64688e-07 -1.26712e-24)
(9.27001e-06 -1.84067e-06 1.41129e-24)
(9.56819e-06 1.88794e-07 1.08125e-24)
(9.85592e-06 -1.91068e-06 -1.6105e-24)
(1.01534e-05 1.12958e-07 -5.45608e-25)
(1.044e-05 -1.98059e-06 4.60371e-25)
(1.07384e-05 3.76061e-08 -6.55823e-25)
(1.10221e-05 -2.04993e-06 1.67823e-25)
(1.13231e-05 -3.68527e-08 6.78095e-25)
(1.16024e-05 -2.11826e-06 8.84307e-27)
(1.19075e-05 -1.10023e-07 -4.17903e-25)
(1.21807e-05 -2.18515e-06 -4.73662e-25)
(1.24915e-05 -1.81526e-07 1.55913e-25)
(1.2757e-05 -2.25017e-06 1.91387e-25)
(1.30748e-05 -2.51004e-07 3.57043e-25)
(1.33314e-05 -2.31293e-06 1.85354e-25)
(1.36574e-05 -3.18126e-07 -2.84466e-26)
(1.39036e-05 -2.37305e-06 5.6136e-25)
(1.4239e-05 -3.82582e-07 -4.33742e-25)
(1.44737e-05 -2.43018e-06 -8.12329e-25)
(1.48195e-05 -4.44094e-07 -7.76375e-26)
(1.50415e-05 -2.48399e-06 4.9153e-26)
(1.53987e-05 -5.02416e-07 9.50644e-26)
(1.56069e-05 -2.53419e-06 1.08799e-25)
(1.59762e-05 -5.57333e-07 4.62547e-25)
(1.61699e-05 -2.58051e-06 9.31845e-26)
(1.65519e-05 -6.08663e-07 4.08567e-25)
(1.67302e-05 -2.62272e-06 -2.21427e-25)
(1.71254e-05 -6.56264e-07 -8.49193e-25)
(1.72878e-05 -2.66062e-06 -1.93052e-25)
(1.76964e-05 -7.00025e-07 3.0868e-25)
(1.78424e-05 -2.69406e-06 2.95957e-25)
(1.82646e-05 -7.39873e-07 6.0506e-26)
(1.83939e-05 -2.72289e-06 -4.29674e-25)
(1.88297e-05 -7.75768e-07 7.46938e-26)
(1.8942e-05 -2.74703e-06 6.08524e-26)
(1.93913e-05 -8.07706e-07 2.34823e-26)
(1.94865e-05 -2.76641e-06 2.06679e-25)
(1.9949e-05 -8.35713e-07 4.97132e-26)
(2.00272e-05 -2.78099e-06 -3.52746e-26)
(2.05024e-05 -8.59848e-07 -5.68122e-25)
(2.05637e-05 -2.79078e-06 -1.5249e-25)
(2.10511e-05 -8.80196e-07 8.84354e-25)
(2.10956e-05 -2.79579e-06 -8.30292e-27)
(2.15946e-05 -8.9687e-07 -3.97134e-25)
(2.16228e-05 -2.79607e-06 4.82448e-25)
(2.21325e-05 -9.10004e-07 1.18303e-25)
(2.21447e-05 -2.7917e-06 2.83909e-26)
(2.26642e-05 -9.19755e-07 1.60539e-26)
(2.2661e-05 -2.78274e-06 -3.27109e-25)
(2.31893e-05 -9.26295e-07 -3.31513e-25)
(2.31712e-05 -2.76932e-06 3.07678e-25)
(2.37073e-05 -9.29815e-07 -6.54434e-26)
(2.36748e-05 -2.75154e-06 -4.44763e-25)
(2.42175e-05 -9.30516e-07 -3.58363e-26)
(2.41714e-05 -2.72952e-06 7.56971e-26)
(2.47195e-05 -9.28608e-07 -1.11547e-25)
(2.46604e-05 -2.70342e-06 3.71006e-25)
(2.52126e-05 -9.24311e-07 2.75869e-25)
(2.51412e-05 -2.67336e-06 -2.14988e-25)
(2.56962e-05 -9.17848e-07 -7.00639e-26)
(2.56132e-05 -2.63948e-06 -1.15557e-25)
(2.61696e-05 -9.09448e-07 1.67066e-25)
(2.60757e-05 -2.60194e-06 2.86563e-25)
(2.66322e-05 -8.99339e-07 -4.36301e-26)
(2.65282e-05 -2.56087e-06 -2.27777e-25)
(2.70833e-05 -8.8775e-07 9.40975e-26)
(2.69698e-05 -2.51642e-06 1.87906e-26)
(2.7522e-05 -8.74911e-07 -7.13695e-26)
(2.73999e-05 -2.46872e-06 3.11416e-25)
(2.79477e-05 -8.61047e-07 -1.77638e-25)
(2.78176e-05 -2.4179e-06 -3.04039e-25)
(2.83595e-05 -8.46384e-07 3.85405e-25)
(2.82221e-05 -2.36411e-06 1.66962e-25)
(2.87567e-05 -8.31142e-07 -2.36288e-25)
(2.86126e-05 -2.30745e-06 -4.06061e-26)
(2.91382e-05 -8.15541e-07 1.13498e-25)
(2.89882e-05 -2.24804e-06 -2.4178e-25)
(2.95032e-05 -7.99795e-07 -2.06274e-25)
(2.93479e-05 -2.186e-06 1.73944e-25)
(2.98507e-05 -7.84116e-07 -7.98948e-26)
(2.96907e-05 -2.12143e-06 3.69882e-25)
(3.01798e-05 -7.68715e-07 1.19949e-25)
(3.00157e-05 -2.05442e-06 -1.57584e-25)
(3.04894e-05 -7.53797e-07 7.89036e-26)
(3.03218e-05 -1.98508e-06 -2.28667e-25)
(3.07784e-05 -7.39567e-07 -4.92083e-26)
(3.06078e-05 -1.91347e-06 8.03868e-26)
(3.10457e-05 -7.26226e-07 1.91913e-26)
(3.08727e-05 -1.83968e-06 -6.56207e-26)
(3.12901e-05 -7.13972e-07 4.67326e-27)
(3.11153e-05 -1.76378e-06 6.89292e-26)
(3.15105e-05 -7.03e-07 -6.04398e-26)
(3.13342e-05 -1.68581e-06 -8.0217e-26)
(3.17055e-05 -6.93506e-07 1.5061e-26)
(3.15282e-05 -1.60583e-06 1.14159e-25)
(3.18738e-05 -6.85678e-07 2.58694e-26)
(3.1696e-05 -1.52387e-06 -6.33019e-26)
(3.20142e-05 -6.79737e-07 6.69232e-27)
(3.18361e-05 -1.4399e-06 1.6548e-26)
(3.21251e-05 -6.75832e-07 -4.73619e-26)
(3.1947e-05 -1.35394e-06 -5.64574e-27)
(3.22053e-05 -6.74356e-07 7.18968e-27)
(3.20275e-05 -1.26574e-06 -8.47218e-27)
(3.2253e-05 -6.74962e-07 8.38248e-27)
(3.20756e-05 -1.17575e-06 -5.15719e-26)
(3.22698e-05 -6.78256e-07 1.71323e-27)
(3.20927e-05 -1.08345e-06 5.67309e-26)
(3.22515e-05 -6.75626e-07 -1.31192e-27)
(3.22178e-05 -7.04274e-07 1.04609e-26)
(3.21928e-05 -7.79361e-07 2.30592e-27)
(3.21485e-05 -8.49442e-07 6.2185e-30)
(3.2085e-05 -9.24885e-07 -8.83563e-27)
(3.20748e-05 -9.97536e-07 -1.46727e-27)
)
;
    }
    frontAndBackPlanes
    {
        type            empty;
    }
}


// ************************************************************************* //
