/*--------------------------------*- C++ -*----------------------------------*\
| =========                 |                                                 |
| \\      /  F ield         | foam-extend: Open Source CFD                    |
|  \\    /   O peration     | Version:     3.1                                |
|   \\  /    A nd           | Web:         http://www.extend-project.de       |
|    \\/     M anipulation  |                                                 |
\*---------------------------------------------------------------------------*/
FoamFile
{
    version     2.0;
    format      ascii;
    class       volSymmTensorField;
    location    "0.005";
    object      sigma;
}
// * * * * * * * * * * * * * * * * * * * * * * * * * * * * * * * * * * * * * //

dimensions      [1 -1 -2 0 0 0 0];

internalField   nonuniform List<symmTensor> 
328
(
(-4.30459 0.788072 -2.69155e-25 -4.13132 -5.54088e-20 -3.37437)
(-4.82225 0.354346 -2.56756e-26 -3.58469 1.59557e-26 -3.36278)
(-4.79821 -0.358388 -3.32485e-26 -3.57418 -2.66556e-26 -3.34896)
(-4.20191 -0.803364 2.07501e-25 -4.09472 8.86558e-22 -3.31866)
(-4.58444 0.545649 -9.8959e-25 -4.70801 2.21756e-19 -3.71698)
(-4.81474 0.293103 8.73052e-26 -4.18217 -9.02297e-26 -3.59877)
(-4.79096 -0.300615 -2.4569e-26 -4.17907 -7.08012e-26 -3.58802)
(-4.48737 -0.557028 -2.99485e-25 -4.68313 -1.7333e-19 -3.66821)
(-4.65862 0.343199 2.24768e-24 -5.04794 -1.6033e-19 -3.88263)
(-4.6229 0.224886 -1.20168e-26 -4.52772 -2.50721e-27 -3.66025)
(-4.59744 -0.234779 -1.58537e-25 -4.52789 -8.17352e-26 -3.65014)
(-4.56359 -0.351849 1.11599e-24 -5.02957 1.65348e-19 -3.83727)
(-4.74998 0.197059 -1.41778e-24 -5.28353 1.62034e-19 -4.01341)
(-4.57309 0.153473 -4.20839e-26 -4.84897 -4.50963e-26 -3.76883)
(-4.548 -0.164779 3.95007e-25 -4.85172 2.48548e-25 -3.75989)
(-4.65817 -0.203984 -2.11624e-25 -5.26954 -7.11803e-20 -3.97109)
(-4.78545 0.0997611 1.23085e-24 -5.42027 -1.37218e-19 -4.0823)
(-4.51433 0.0910008 3.16737e-25 -5.0671 -1.19405e-25 -3.83258)
(-4.48957 -0.102994 -2.13766e-25 -5.07108 -1.3022e-25 -3.82426)
(-4.69639 -0.105666 -2.27005e-25 -5.40876 -4.86659e-20 -4.04206)
(-4.80428 0.0375444 -8.23034e-25 -5.50126 1.49809e-19 -4.12222)
(-4.49974 0.0411068 -3.03057e-25 -5.23596 2.1001e-25 -3.89428)
(-4.47582 -0.0533793 1.34724e-25 -5.24068 1.1563e-25 -3.88661)
(-4.71822 -0.0428611 -4.83011e-25 -5.49127 2.12543e-19 -4.0838)
(-4.80196 0.000632527 -1.10929e-25 -5.54284 -1.60359e-19 -4.13792)
(-4.49559 0.00562438 3.04151e-25 -5.35085 -1.413e-25 -3.93858)
(-4.47259 -0.0179181 -3.02705e-26 -5.35587 -6.82732e-26 -3.93139)
(-4.71897 -0.00561756 1.78768e-25 -5.53376 -9.99592e-20 -4.1011)
(-4.78926 -0.0192038 -2.06151e-26 -5.56135 1.53022e-19 -4.14025)
(-4.50676 -0.0169147 -3.31396e-25 -5.42985 9.12715e-26 -3.97465)
(-4.48481 0.00473875 -1.47141e-25 -5.43496 -4.63098e-26 -3.96792)
(-4.70952 0.0144128 5.49047e-25 -5.55288 2.39286e-20 -4.10496)
(-4.76958 -0.0277387 3.40757e-25 -5.56563 -7.44172e-20 -4.13409)
(-4.52325 -0.0287731 2.16911e-26 -5.47917 1.23673e-26 -4.00098)
(-4.5024 0.0167948 8.51169e-26 -5.48423 8.96018e-26 -3.99466)
(-4.69326 0.0230732 -1.88156e-25 -5.55762 9.123e-20 -4.10035)
(-4.74751 -0.02935 -1.27337e-25 -5.56211 -3.10138e-20 -4.12386)
(-4.54311 -0.0328742 4.47472e-26 -5.50792 -1.71331e-26 -4.02042)
(-4.52337 0.0211366 3.55591e-26 -5.51285 -6.05518e-26 -4.0145)
(-4.67481 0.0247823 -7.85023e-26 -5.55452 -8.16615e-20 -4.09174)
(-4.72563 -0.0270786 -1.54696e-26 -5.55459 2.72132e-20 -4.11209)
(-4.56258 -0.0319082 4.84216e-26 -5.52192 -3.75153e-27 -4.03381)
(-4.54399 0.0204378 -8.55723e-26 -5.52666 -1.51288e-26 -4.02827)
(-4.65673 0.0226021 -2.59197e-26 -5.54741 -1.22341e-21 -4.08166)
(-4.70583 -0.0230397 -3.85761e-26 -5.54544 -5.5225e-21 -4.10051)
(-4.58021 -0.028168 -4.69329e-26 -5.52637 4.09395e-27 -4.04264)
(-4.56279 0.0169838 7.40579e-27 -5.5309 1.32052e-27 -4.03748)
(-4.64092 0.0186584 -4.1326e-26 -5.5387 9.78948e-20 -4.07185)
(-4.68901 -0.0185781 1.08784e-26 -5.53599 -1.63338e-20 -4.09)
(-4.59488 -0.0233407 -1.86361e-26 -5.52491 -6.49555e-29 -4.04792)
(-4.57864 0.0124594 -9.86964e-27 -5.52919 2.89373e-27 -4.04314)
(-4.62829 0.0143006 3.11973e-26 -5.52971 -1.13034e-19 -4.0632)
(-4.67544 -0.0144783 4.03374e-26 -5.52689 5.65211e-20 -4.08094)
(-4.60635 -0.0185415 3.33931e-26 -5.52018 -1.55555e-26 -4.05062)
(-4.59133 0.00798047 1.56261e-26 -5.5242 7.26676e-27 -4.04622)
(-4.61909 0.0103152 -1.03706e-25 -5.5211 1.14325e-20 -4.05608)
(-4.66492 -0.0111088 5.79902e-26 -5.51836 -8.57216e-20 -4.07332)
(-4.61477 -0.0143824 2.63747e-26 -5.51385 -3.68877e-27 -4.05145)
(-4.601 0.00416033 -1.34572e-25 -5.51757 -2.9155e-26 -4.04743)
(-4.61314 0.00707126 3.17688e-26 -5.51309 -4.42507e-20 -4.0505)
(-4.657 -0.00856295 -2.1895e-26 -5.51036 -3.05157e-20 -4.06695)
(-4.6206 -0.0111025 -2.67322e-26 -5.50686 1.46942e-26 -4.05099)
(-4.6081 0.00124002 1.67228e-25 -5.51028 3.9493e-26 -4.04736)
(-4.60996 0.00466216 -1.18441e-26 -5.50563 1.28616e-20 -4.04624)
(-4.6511 -0.00676881 -7.32058e-26 -5.50268 8.7703e-20 -4.06152)
(-4.6244 -0.00869497 8.38934e-26 -5.49965 9.88081e-27 -4.04962)
(-4.61321 -0.000785575 -4.77443e-26 -5.50276 -1.33743e-26 -4.04639)
(-4.60895 0.00301593 1.09633e-25 -5.49852 2.73401e-20 -4.04299)
(-4.64666 -0.00557699 -8.35081e-26 -5.49507 -6.16028e-21 -4.0567)
(-4.62671 -0.00702135 -1.07041e-25 -5.49234 3.48689e-27 -4.04762)
(-4.61686 -0.00205312 -3.7483e-26 -5.49512 -3.23802e-26 -4.0448)
(-4.60955 0.00198318 2.59692e-26 -5.4915 9.46315e-20 -4.04043)
(-4.64321 -0.00482052 1.35995e-25 -5.4873 5.19349e-21 -4.05221)
(-4.62802 -0.00589644 5.56814e-26 -5.48484 6.52148e-27 -4.04515)
(-4.61954 -0.00274653 -2.29236e-25 -5.48729 -7.4594e-26 -4.04273)
(-4.61126 0.00139689 -7.04045e-26 -5.48433 -7.97936e-20 -4.03824)
(-4.64036 -0.0043506 -4.8624e-26 -5.47913 -1.54879e-20 -4.0478)
(-4.6287 -0.00514219 1.4528e-25 -5.47702 -1.67326e-27 -4.04229)
(-4.62161 -0.00304253 1.09184e-25 -5.47911 5.87422e-26 -4.04029)
(-4.61368 0.00110827 1.88513e-25 -5.47679 -2.32847e-21 -4.03619)
(-4.63788 -0.00405163 9.69334e-26 -5.47041 7.57251e-20 -4.04332)
(-4.62902 -0.0046154 3.47332e-26 -5.46869 1.46165e-26 -4.03909)
(-4.62333 -0.00308423 -7.63078e-26 -5.47044 -6.75438e-27 -4.03751)
(-4.61653 0.00100138 -5.76407e-26 -5.46869 5.23163e-20 -4.03409)
(-4.63558 -0.00384179 -1.47897e-25 -5.46099 -1.65935e-20 -4.03863)
(-4.62913 -0.00421125 -1.46426e-25 -5.45972 9.6293e-27 -4.03554)
(-4.62485 -0.00297245 -4.64455e-26 -5.46111 -3.83244e-26 -4.03439)
(-4.61959 0.000996339 -9.43237e-27 -5.4599 -7.65424e-20 -4.0318)
(-4.6334 -0.00370089 5.02433e-26 -5.45045 -3.95843e-20 -4.03354)
(-4.62918 -0.0038525 1.3094e-25 -5.44963 1.79449e-26 -4.03153)
(-4.62635 -0.00274 3.39774e-26 -5.45065 1.05554e-26 -4.03081)
(-4.62291 0.00109321 3.33204e-26 -5.45 8.03093e-22 -4.02917)
(-4.63128 -0.00362906 2.44228e-26 -5.43885 2.0301e-20 -4.02806)
(-4.62919 -0.00356363 -3.0291e-25 -5.43853 -4.07454e-26 -4.02709)
(-4.6278 -0.00248624 8.4529e-26 -5.43919 1.294e-26 -4.0268)
(-4.62621 0.00123517 8.00057e-26 -5.43901 -4.48784e-20 -4.02609)
(-4.62946 -0.00355588 -2.02985e-25 -5.4271 -2.18555e-20 -4.02263)
(-4.62925 -0.00329658 1.86351e-25 -5.42724 3.25516e-26 -4.0226)
(-4.62916 -0.00222953 -1.39914e-25 -5.42757 -2.19408e-26 -4.0227)
(-4.62934 0.00136822 -1.00012e-28 -5.42784 5.35287e-20 -4.02288)
(-4.62784 -0.00348626 -2.16068e-26 -5.41519 -2.47315e-20 -4.01722)
(-4.62933 -0.00304392 -1.32789e-25 -5.41576 -5.24323e-26 -4.01804)
(-4.63043 -0.00197326 2.59283e-25 -5.41578 1.44165e-25 -4.01849)
(-4.63223 0.00149979 -1.57798e-25 -5.41645 2.57318e-20 -4.01948)
(-4.62643 -0.00341679 1.18825e-25 -5.40316 2.5287e-20 -4.01184)
(-4.62945 -0.00280092 -2.02753e-25 -5.4041 -6.08306e-26 -4.01343)
(-4.63163 -0.00172295 2.05099e-25 -5.40385 6.44633e-26 -4.0142)
(-4.63491 0.00162546 1.29547e-26 -5.40489 -7.35901e-20 -4.01592)
(-4.62522 -0.00334751 -2.41018e-25 -5.39102 2.17991e-21 -4.0065)
(-4.62961 -0.00256675 4.08177e-26 -5.3923 -5.88655e-27 -4.00877)
(-4.63276 -0.00148048 -1.59283e-25 -5.3918 -3.05747e-26 -4.00983)
(-4.63736 0.00174472 2.66617e-25 -5.39317 5.18804e-20 -4.01222)
(-4.6242 -0.00327893 1.81205e-25 -5.37878 -2.78497e-20 -4.0012)
(-4.6298 -0.00234144 -3.28511e-26 -5.38037 3.40355e-26 -4.00407)
(-4.63381 -0.00124699 2.51531e-25 -5.37965 4.64223e-26 -4.00539)
(-4.6396 0.00185758 6.80266e-26 -5.38131 2.13621e-20 -4.00837)
(-4.62335 -0.00321151 -1.23384e-25 -5.36647 3.36369e-20 -3.99593)
(-4.63003 -0.00212528 -2.13978e-25 -5.36832 -1.16921e-25 -3.99934)
(-4.6348 -0.00102318 -4.82102e-26 -5.3674 1.36856e-26 -4.00089)
(-4.64163 0.00196415 -2.5465e-25 -5.36932 -3.46369e-20 -4.00438)
(-4.62268 -0.00314575 4.13175e-25 -5.35408 -6.43712e-22 -3.99071)
(-4.63029 -0.00191863 1.05294e-25 -5.35616 3.40773e-27 -3.99458)
(-4.63572 -0.000809514 2.55549e-25 -5.35508 2.22353e-25 -3.99632)
(-4.64345 0.00206461 1.48635e-25 -5.35722 1.75377e-20 -4.00028)
(-4.62216 -0.00308208 -2.57641e-25 -5.34164 5.47443e-21 -3.98553)
(-4.63057 -0.00172185 8.44951e-26 -5.34392 1.82354e-26 -3.9898)
(-4.63657 -0.000606325 3.35787e-26 -5.34269 2.96661e-27 -3.99171)
(-4.64509 0.00215911 -2.56356e-25 -5.34502 -6.98453e-21 -3.99605)
(-4.6218 -0.00302086 5.30773e-26 -5.32915 5.00298e-21 -3.98038)
(-4.63088 -0.00153524 4.32677e-26 -5.33159 -3.28182e-29 -3.98499)
(-4.63736 -0.000413864 -1.31535e-25 -5.33023 -1.32395e-26 -3.98704)
(-4.64654 0.00224782 -3.25105e-28 -5.33272 -2.26737e-20 -3.99171)
(-4.62157 -0.0029624 -5.78011e-26 -5.31661 -2.22128e-20 -3.97528)
(-4.63121 -0.00135902 1.8235e-25 -5.31919 3.04234e-26 -3.98016)
(-4.63809 -0.000232309 -2.24e-25 -5.31773 -4.6117e-26 -3.98233)
(-4.64781 0.00233087 5.19657e-26 -5.32035 1.94407e-20 -3.98727)
(-4.62148 -0.00290695 -4.5602e-26 -5.30403 3.35814e-20 -3.97021)
(-4.63156 -0.00119337 5.04109e-26 -5.30672 -2.76095e-26 -3.97532)
(-4.63876 -6.17743e-05 -9.30575e-26 -5.30517 -2.81802e-26 -3.97758)
(-4.64891 0.00240841 -6.32708e-26 -5.3079 5.26389e-22 -3.98273)
(-4.62151 -0.00285469 -1.82951e-25 -5.29142 -3.73185e-20 -3.96517)
(-4.63193 -0.0010384 2.21759e-26 -5.29419 -8.62525e-27 -3.97045)
(-4.63937 9.76827e-05 1.75506e-25 -5.29257 5.69208e-26 -3.97278)
(-4.64986 0.00248055 2.89757e-25 -5.29537 3.63996e-21 -3.9781)
(-4.62165 -0.00280579 1.12693e-25 -5.27877 -5.43733e-21 -3.96017)
(-4.63232 -0.000894141 -2.44908e-25 -5.2816 -6.41955e-26 -3.96557)
(-4.63993 0.000246058 -2.71302e-25 -5.27994 -1.1806e-25 -3.96795)
(-4.65066 0.00254743 2.90095e-27 -5.28279 -1.68407e-20 -3.97338)
(-4.62189 -0.00276036 -3.40839e-26 -5.2661 -3.30733e-21 -3.9552)
(-4.63272 -0.000760606 2.32142e-25 -5.26896 4.98233e-26 -3.96068)
(-4.64044 0.000383395 4.34844e-26 -5.26726 -4.53029e-27 -3.96309)
(-4.65131 0.00260916 -1.982e-26 -5.27015 1.85689e-21 -3.96859)
(-4.62223 -0.00271847 -5.00431e-25 -5.2534 4.80565e-20 -3.95026)
(-4.63313 -0.000637731 1.70863e-25 -5.25628 4.23725e-26 -3.95577)
(-4.64091 0.000509789 -7.05325e-26 -5.25456 -7.24135e-26 -3.95819)
(-4.65184 0.00266589 1.5859e-26 -5.25746 -1.9052e-20 -3.96373)
(-4.62266 -0.00268017 1.18115e-25 -5.24069 -3.1275e-20 -3.94534)
(-4.63355 -0.000525413 -2.17872e-25 -5.24356 -5.27285e-26 -3.95085)
(-4.64133 0.000625374 1.44958e-25 -5.24183 8.59574e-26 -3.95327)
(-4.65225 0.00271776 -2.7346e-26 -5.24473 1.80455e-20 -3.9588)
(-4.62316 -0.00264548 -1.74052e-25 -5.22795 -1.38883e-20 -3.94045)
(-4.63398 -0.000423498 -5.60762e-26 -5.2308 -2.89871e-26 -3.94592)
(-4.64171 0.000730332 -1.02722e-25 -5.22908 -3.68611e-26 -3.94832)
(-4.65255 0.00276489 1.30194e-26 -5.23195 3.57805e-21 -3.95381)
(-4.62373 -0.00261438 5.75451e-26 -5.21519 4.39731e-20 -3.93557)
(-4.63441 -0.00033179 -4.1454e-26 -5.218 -4.08148e-26 -3.94097)
(-4.64205 0.000824884 1.97479e-25 -5.2163 9.95674e-26 -3.94334)
(-4.65275 0.00280745 -2.00702e-26 -5.21913 -1.01938e-20 -3.94876)
(-4.62435 -0.00258685 2.73365e-25 -5.20241 -1.51668e-20 -3.93071)
(-4.63485 -0.000250053 7.48138e-26 -5.20518 5.0443e-26 -3.93601)
(-4.64235 0.000909289 -1.28833e-25 -5.2035 -5.68388e-26 -3.93834)
(-4.65286 0.00284558 1.18697e-25 -5.20628 -1.17864e-21 -3.94366)
(-4.62503 -0.00256281 -7.55574e-26 -5.18962 -2.62098e-20 -3.92587)
(-4.63529 -0.000178009 5.4836e-26 -5.19232 7.4598e-28 -3.93105)
(-4.64262 0.000983844 1.9406e-26 -5.19068 6.06192e-27 -3.93332)
(-4.65289 0.00287948 -1.03847e-26 -5.19339 2.85205e-20 -3.93852)
(-4.62576 -0.0025422 -2.80128e-25 -5.17681 2.01272e-20 -3.92103)
(-4.63573 -0.000115344 1.03025e-26 -5.17944 -1.34591e-26 -3.92607)
(-4.64286 0.00104888 -2.31653e-26 -5.17784 -1.10776e-26 -3.92829)
(-4.65284 0.00290929 2.04119e-25 -5.18048 -1.45254e-20 -3.93333)
(-4.62652 -0.00252491 2.13789e-26 -5.16399 1.98633e-21 -3.91621)
(-4.63617 -6.17113e-05 -2.14714e-26 -5.16653 1.01895e-26 -3.92108)
(-4.64307 0.00110477 1.52095e-25 -5.16499 1.51267e-26 -3.92323)
(-4.65273 0.00293523 -4.05869e-25 -5.16753 -1.84799e-20 -3.92811)
(-4.62731 -0.00251084 -7.57763e-26 -5.15115 1.51339e-21 -3.91139)
(-4.6366 -1.67302e-05 -1.47513e-26 -5.1536 -1.02997e-27 -3.91609)
(-4.64326 0.00115189 -3.63693e-27 -5.15211 2.30993e-26 -3.91815)
(-4.65256 0.00295747 9.84416e-26 -5.15457 3.14353e-20 -3.92286)
(-4.62812 -0.00249985 -7.82986e-26 -5.1383 -1.99725e-20 -3.90657)
(-4.63704 2.0007e-05 1.57299e-26 -5.14065 4.61069e-27 -3.91108)
(-4.64342 0.00119068 6.65936e-27 -5.13923 6.25025e-27 -3.91306)
(-4.65234 0.00297622 5.77482e-26 -5.14158 6.04001e-21 -3.91757)
(-4.62895 -0.00249181 -7.10943e-26 -5.12544 1.65327e-20 -3.90176)
(-4.63746 4.89338e-05 1.07217e-26 -5.12768 -1.49751e-26 -3.90606)
(-4.64356 0.00122158 3.74236e-26 -5.12632 7.30728e-27 -3.90796)
(-4.65208 0.00299169 9.93687e-27 -5.12857 -2.48842e-20 -3.91227)
(-4.62979 -0.00248656 -1.02189e-25 -5.11256 -1.57007e-20 -3.89694)
(-4.63789 7.05053e-05 7.48417e-26 -5.11469 2.06168e-26 -3.90104)
(-4.64369 0.00124505 -8.35996e-26 -5.1134 -1.18554e-26 -3.90284)
(-4.65179 0.0030041 2.52174e-25 -5.11554 3.53468e-21 -3.90694)
(-4.63064 -0.00248393 -4.00737e-26 -5.09966 6.81222e-21 -3.89212)
(-4.6383 8.51951e-05 4.9159e-28 -5.10169 -1.0434e-26 -3.896)
(-4.6438 0.00126159 2.6991e-25 -5.10047 5.90308e-26 -3.89771)
(-4.65147 0.00301366 -4.02461e-25 -5.1025 1.80205e-20 -3.90159)
(-4.63148 -0.00248376 -1.03431e-26 -5.08675 1.1027e-20 -3.8873)
(-4.63871 9.34914e-05 -3.32788e-26 -5.08867 -1.53299e-26 -3.89096)
(-4.6439 0.00127168 7.47295e-27 -5.08752 2.39947e-26 -3.89257)
(-4.65113 0.00302061 3.34395e-25 -5.08944 5.66851e-21 -3.89623)
(-4.63232 -0.00248588 1.92391e-26 -5.07383 -1.56181e-21 -3.88247)
(-4.63911 9.5893e-05 1.04384e-25 -5.07564 1.48332e-26 -3.8859)
(-4.64399 0.00127585 -3.19567e-25 -5.07456 -3.16792e-26 -3.88742)
(-4.65078 0.00302516 -5.62134e-26 -5.07637 -2.03927e-20 -3.89086)
(-4.63315 -0.0024901 -1.27251e-26 -5.0609 -1.7077e-20 -3.87762)
(-4.6395 9.29055e-05 -1.81786e-25 -5.06259 -2.28701e-26 -3.88084)
(-4.64407 0.00127459 -3.94088e-25 -5.06159 -1.1009e-25 -3.88227)
(-4.65042 0.00302756 1.5313e-25 -5.06328 -7.17091e-21 -3.88548)
(-4.63397 -0.00249624 1.03694e-25 -5.04795 2.55368e-21 -3.87277)
(-4.63989 8.5037e-05 -5.32437e-26 -5.04953 -7.06911e-27 -3.87577)
(-4.64414 0.00126845 1.66371e-25 -5.0486 1.99474e-26 -3.8771)
(-4.65005 0.00302803 1.44525e-25 -5.05018 1.63882e-20 -3.8801)
(-4.63478 -0.00250414 6.50422e-27 -5.03498 2.91054e-20 -3.86791)
(-4.64026 7.27936e-05 2.78624e-25 -5.03645 7.05394e-26 -3.87069)
(-4.6442 0.00125792 -4.74343e-25 -5.0356 -9.02354e-26 -3.87193)
(-4.64969 0.0030268 2.51491e-26 -5.03706 -6.58605e-21 -3.87471)
(-4.63556 -0.0025136 -3.04616e-26 -5.022 -1.46242e-20 -3.86303)
(-4.64062 5.66756e-05 1.53646e-25 -5.02336 -1.39438e-26 -3.8656)
(-4.64427 0.00124352 9.02031e-26 -5.02258 1.6346e-26 -3.86674)
(-4.64933 0.00302409 -2.97887e-25 -5.02394 -5.94317e-21 -3.86931)
(-4.63633 -0.00252447 2.03877e-25 -5.009 -3.33558e-21 -3.85814)
(-4.64097 3.71728e-05 -4.65993e-26 -5.01026 -1.51467e-27 -3.8605)
(-4.64433 0.00122575 9.29778e-26 -5.00955 5.34822e-26 -3.86156)
(-4.64898 0.00302015 -4.63418e-25 -5.0108 -6.76834e-21 -3.86392)
(-4.63707 -0.00253657 -7.86735e-26 -4.99599 2.05589e-21 -3.85323)
(-4.64132 1.47613e-05 -5.12655e-26 -4.99715 -2.1913e-26 -3.85539)
(-4.64439 0.00120509 -9.88016e-26 -4.9965 -5.38624e-26 -3.85636)
(-4.64865 0.00301518 5.92496e-25 -4.99765 2.06577e-20 -3.85852)
(-4.63778 -0.00254975 7.72592e-26 -4.98296 9.57478e-21 -3.8483)
(-4.64165 -1.01013e-05 -3.17374e-25 -4.98402 -5.88365e-26 -3.85027)
(-4.64445 0.00118202 2.61127e-25 -4.98344 5.46897e-26 -3.85116)
(-4.64833 0.0030094 -2.64817e-25 -4.98449 -1.24565e-20 -3.85313)
(-4.63847 -0.00256388 -3.66015e-26 -4.96992 -8.75443e-21 -3.84336)
(-4.64198 -3.69783e-05 2.76601e-25 -4.97088 3.36059e-26 -3.84515)
(-4.64451 0.00115699 -3.49451e-25 -4.97036 -2.50506e-26 -3.84595)
(-4.64803 0.00300303 -2.43172e-25 -4.97132 6.21831e-21 -3.84774)
(-4.63914 -0.00257881 -1.5296e-25 -4.95685 4.83859e-22 -3.8384)
(-4.64229 -6.54587e-05 1.18101e-25 -4.95772 1.96543e-26 -3.84001)
(-4.64458 0.00113041 -3.08747e-26 -4.95727 -4.37412e-26 -3.84074)
(-4.64774 0.00299626 4.99724e-25 -4.95814 -7.6439e-21 -3.84236)
(-4.63978 -0.00259443 -2.16372e-25 -4.94376 -2.49149e-21 -3.83342)
(-4.6426 -9.51586e-05 2.93227e-25 -4.94455 1.18048e-26 -3.83486)
(-4.64465 0.00110269 9.43375e-26 -4.94415 5.38537e-27 -3.83552)
(-4.64749 0.00298931 -1.22497e-25 -4.94494 -5.43709e-21 -3.83697)
(-4.64039 -0.00261066 1.39199e-25 -4.93066 2.17923e-21 -3.82842)
(-4.64289 -0.000125725 -4.06602e-25 -4.93137 -6.10384e-26 -3.82971)
(-4.64472 0.00107419 6.39111e-26 -4.93102 4.43337e-26 -3.8303)
(-4.64725 0.00298236 2.17967e-25 -4.93172 1.59276e-20 -3.8316)
(-4.64097 -0.00262741 -1.24255e-25 -4.91753 -8.59493e-21 -3.8234)
(-4.64318 -0.000156836 8.35957e-26 -4.91816 3.22825e-26 -3.82454)
(-4.64481 0.00104525 -7.08735e-25 -4.91786 -1.58331e-25 -3.82507)
(-4.64704 0.00297559 4.12119e-25 -4.9185 -1.06024e-20 -3.82622)
(-4.64153 -0.00264463 -3.64476e-25 -4.90437 5.65988e-21 -3.81836)
(-4.64347 -0.000188206 6.35999e-26 -4.90494 3.69917e-27 -3.81937)
(-4.64489 0.00101619 -4.57678e-25 -4.90469 -1.04967e-25 -3.81984)
(-4.64686 0.00296921 2.52937e-25 -4.90525 3.62834e-21 -3.82085)
(-4.64206 -0.00266231 -9.22912e-26 -4.89119 3.3004e-21 -3.8133)
(-4.64374 -0.00021958 4.11421e-26 -4.89169 1.12062e-26 -3.81418)
(-4.64499 0.00098726 2.8655e-25 -4.89148 1.66102e-26 -3.81459)
(-4.64671 0.00296338 2.66459e-26 -4.89198 -1.30282e-20 -3.81548)
(-4.64256 -0.00268044 2.54829e-25 -4.87798 1.58954e-21 -3.80822)
(-4.64401 -0.000250744 -2.45782e-25 -4.87842 -4.35607e-26 -3.80898)
(-4.64509 0.000958714 -2.89481e-25 -4.87825 -5.6852e-27 -3.80934)
(-4.64658 0.00295832 -5.96622e-25 -4.87869 1.35058e-20 -3.81011)
(-4.64304 -0.00269909 -1.7358e-25 -4.86474 -1.00713e-21 -3.80312)
(-4.64427 -0.000281514 6.46507e-26 -4.86513 2.85959e-26 -3.80376)
(-4.6452 0.000930755 7.73067e-25 -4.86499 1.13331e-25 -3.80408)
(-4.64648 0.00295421 -2.41928e-25 -4.86538 -1.71563e-21 -3.80475)
(-4.6435 -0.00271834 1.34111e-25 -4.85147 -3.1874e-21 -3.79799)
(-4.64453 -0.000311754 9.56229e-26 -4.8518 8.54421e-27 -3.79853)
(-4.64532 0.000903566 -7.97101e-25 -4.8517 -1.52684e-25 -3.79881)
(-4.64641 0.00295128 5.32423e-26 -4.85204 -1.08823e-21 -3.79938)
(-4.64394 -0.00273838 -3.60194e-25 -4.83815 6.31196e-21 -3.79284)
(-4.64478 -0.000341377 1.99064e-25 -4.83843 -2.68265e-27 -3.79329)
(-4.64544 0.00087731 9.84014e-26 -4.83836 7.00393e-26 -3.79353)
(-4.64637 0.00294981 7.02229e-25 -4.83866 2.45774e-21 -3.79401)
(-4.64435 -0.0027595 -4.52218e-26 -4.82479 -3.39533e-21 -3.78766)
(-4.64503 -0.000370396 1.30513e-25 -4.82503 2.88541e-26 -3.78803)
(-4.64558 0.000852186 -9.68577e-25 -4.82498 -7.94845e-26 -3.78823)
(-4.64635 0.00295015 1.22805e-24 -4.82524 -2.52634e-21 -3.78864)
(-4.64475 -0.00278222 -1.36989e-25 -4.81137 -4.17046e-22 -3.78245)
(-4.64528 -0.000398999 6.08593e-26 -4.81157 6.82101e-28 -3.78274)
(-4.64572 0.000828495 -2.12183e-25 -4.81155 -6.96725e-26 -3.78291)
(-4.64637 0.00295287 5.82344e-25 -4.81177 1.87147e-21 -3.78326)
(-4.64513 -0.00280759 4.30405e-25 -4.79789 8.96843e-22 -3.77721)
(-4.64552 -0.000427885 5.42765e-25 -4.79805 4.13458e-26 -3.77743)
(-4.64588 0.000806974 -3.83725e-26 -4.79804 3.52389e-26 -3.77757)
(-4.64641 0.00295901 -4.63164e-25 -4.79824 -4.51161e-21 -3.77787)
(-4.6455 -0.00283749 -2.73752e-25 -4.78433 4.69139e-21 -3.77193)
(-4.64577 -0.000458631 -4.73887e-25 -4.78445 -5.34705e-26 -3.77209)
(-4.64605 0.00078916 7.0865e-25 -4.78446 1.08482e-25 -3.77221)
(-4.64649 0.00297044 3.8545e-25 -4.78464 2.98919e-21 -3.77245)
(-4.64584 -0.00287658 -1.47261e-25 -4.77067 -5.27584e-21 -3.76661)
(-4.64603 -0.000495466 8.38401e-27 -4.77075 2.44292e-27 -3.76671)
(-4.64624 0.000779135 5.89517e-25 -4.77078 4.17935e-26 -3.76681)
(-4.64658 0.00299173 -5.03311e-26 -4.77094 3.26965e-22 -3.76701)
(-4.64617 -0.00293261 4.1981e-25 -4.75688 1.54201e-21 -3.76122)
(-4.64632 -0.000545564 -1.55759e-25 -4.75692 -1.36322e-26 -3.7613)
(-4.64647 0.000783807 -3.82021e-25 -4.75696 -3.9265e-26 -3.76138)
(-4.64669 0.00303053 -2.11219e-25 -4.75712 -2.44e-22 -3.76153)
(-4.64641 -0.0030238 -4.53304e-25 -4.74289 -2.08603e-21 -3.75572)
(-4.64663 -0.000623376 -1.37871e-25 -4.74289 -2.33087e-28 -3.75581)
(-4.64674 0.000817168 -3.44565e-26 -4.74294 -5.57291e-27 -3.75587)
(-4.64677 0.00310487 2.26225e-25 -4.7431 -2.33873e-22 -3.75595)
(-4.64663 -0.00315924 2.71729e-25 -4.72864 2.8871e-22 -3.75011)
(-4.64716 -0.000729102 -1.00352e-24 -4.72868 -7.07738e-26 -3.75034)
(-4.64723 0.000878685 2.29973e-25 -4.72873 2.96232e-26 -3.75039)
(-4.64685 0.00322355 4.86355e-25 -4.72882 1.46789e-21 -3.75027)
(-4.64646 -0.00330463 -1.78238e-25 -4.71394 -3.91013e-22 -3.74416)
(-4.6476 -0.000820142 1.02628e-24 -4.71416 7.78789e-26 -3.74471)
(-4.64765 0.000924662 -6.36498e-25 -4.71421 -4.28303e-26 -3.74474)
(-4.64658 0.00335171 -3.98742e-25 -4.7141 -4.12086e-22 -3.74428)
(-4.64677 -0.00299574 -1.57938e-25 -4.69934 1.39447e-22 -3.73845)
(-4.64873 -0.000641087 -2.1033e-25 -4.70053 -2.16906e-26 -3.73971)
(-4.64877 0.000698562 2.06882e-25 -4.70058 4.75579e-28 -3.73974)
(-4.64684 0.00302407 2.69758e-25 -4.69948 -9.78603e-22 -3.73853)
(-4.64607 -0.00141268 -1.67196e-22 -4.68732 9.27018e-24 -3.73336)
(-4.64666 -7.52645e-05 2.83581e-23 -4.68943 -1.21364e-26 -3.73444)
(-4.64668 8.88212e-05 -2.13556e-23 -4.68947 -2.09127e-26 -3.73447)
(-4.64613 0.00142312 4.52874e-22 -4.68744 3.3934e-22 -3.73343)
)
;

boundaryField
{
    plateFix
    {
        type            calculated;
        value           nonuniform List<symmTensor> 4((-4.26915 1.01299 -4.19555e-25 -4.10769 -5.54086e-20 -3.35074) (-5.03403 0.370201 -2.56756e-26 -3.72588 1.59557e-26 -3.50397) (-5.01283 -0.370934 -3.32484e-26 -3.71726 -2.66556e-26 -3.49204) (-4.16614 -1.031 2.30868e-25 -4.07087 8.86683e-22 -3.29481));
    }
    plate
    {
        type            calculated;
        value           nonuniform List<symmTensor> 
168
(
(-5.23991 -9.37883e-05 -6.36925e-26 -5.53432 -1.2803e-19 -4.3097)
(-5.16224 8.64687e-05 4.67865e-25 -5.53521 1.12047e-25 -4.27898)
(-5.1354 -0.00026043 -1.72258e-24 -5.53445 4.34442e-19 -4.26795)
(-5.05552 0.000253563 -6.13569e-25 -5.53535 -3.41445e-19 -4.23635)
(-4.98284 -0.000474449 2.65795e-24 -5.53427 -3.15184e-19 -4.20685)
(-4.90065 0.000467955 1.61153e-24 -5.53516 3.29466e-19 -4.17433)
(-4.91682 -0.000689506 -1.7246e-24 -5.53379 3.3169e-19 -4.18025)
(-4.83493 0.000683568 -3.29367e-25 -5.53468 -1.4373e-19 -4.14785)
(-4.86064 -0.000886388 1.33371e-24 -5.53305 -2.65721e-19 -4.15748)
(-4.77984 0.000881134 -2.71576e-25 -5.53394 -1.02845e-19 -4.12552)
(-4.8248 -0.0010631 -8.9658e-25 -5.53204 2.91424e-19 -4.14274)
(-4.746 0.00105861 -3.5986e-25 -5.53293 4.39381e-19 -4.11158)
(-4.7939 -0.00122088 -7.62035e-26 -5.53076 -3.15614e-19 -4.12987)
(-4.71756 0.0012172 1.43245e-25 -5.53165 -2.17435e-19 -4.09969)
(-4.76781 -0.00136136 -2.89504e-26 -5.52918 2.95582e-19 -4.1188)
(-4.69432 0.00135856 5.53911e-25 -5.53007 5.91421e-20 -4.08976)
(-4.74401 -0.00148608 3.38802e-25 -5.52728 -1.52976e-19 -4.10852)
(-4.67363 0.00148425 -1.82673e-25 -5.52818 1.7802e-19 -4.08073)
(-4.7228 -0.00159618 -1.30035e-25 -5.52505 -5.4908e-20 -4.09915)
(-4.65575 0.00159542 -8.0132e-26 -5.52594 -1.62535e-19 -4.07268)
(-4.70421 -0.00169247 -1.13694e-26 -5.52245 5.95212e-20 -4.09067)
(-4.64068 0.00169288 -2.57999e-26 -5.52334 7.82527e-30 -4.06561)
(-4.68851 -0.00177552 -3.96463e-26 -5.51945 -1.31904e-20 -4.08319)
(-4.62869 0.0017772 -4.05578e-26 -5.52034 1.89642e-19 -4.05962)
(-4.6757 -0.00184577 8.73773e-27 -5.51603 -3.64249e-20 -4.0767)
(-4.61976 0.00184879 2.88141e-26 -5.51692 -2.24965e-19 -4.05468)
(-4.66561 -0.00190362 4.68509e-26 -5.51214 1.17156e-19 -4.07111)
(-4.61372 0.00190804 -1.03039e-25 -5.51304 2.45233e-20 -4.05071)
(-4.65786 -0.00194947 4.85616e-26 -5.50777 -1.76379e-19 -4.06626)
(-4.61019 0.00195529 2.98113e-26 -5.50866 -8.25235e-20 -4.04754)
(-4.652 -0.00198372 -2.47208e-26 -5.50286 -5.54855e-20 -4.06195)
(-4.6087 0.00199091 -1.10445e-26 -5.50375 2.56165e-20 -4.04499)
(-4.64757 -0.00200684 -6.44455e-26 -5.49738 1.72554e-19 -4.05799)
(-4.60879 0.00201529 1.11285e-25 -5.49827 4.96885e-20 -4.04283)
(-4.64414 -0.0020193 -8.41968e-26 -5.49129 -1.27693e-20 -4.05418)
(-4.61 0.00202886 3.35661e-26 -5.49217 1.8899e-19 -4.04088)
(-4.64137 -0.00202162 1.3662e-25 -5.48454 1.11495e-20 -4.05037)
(-4.61199 0.00203208 -7.72132e-26 -5.48542 -1.5822e-19 -4.03897)
(-4.639 -0.00201438 -5.04237e-26 -5.47709 -3.19078e-20 -4.04644)
(-4.61446 0.00202546 1.88455e-25 -5.47797 -2.11302e-21 -4.03698)
(-4.63687 -0.00199765 1.0573e-25 -5.46888 1.54654e-19 -4.04231)
(-4.61724 0.00200903 -5.28151e-26 -5.46976 1.03093e-19 -4.03481)
(-4.63485 -0.00197099 -1.50168e-25 -5.45988 -3.68298e-20 -4.0379)
(-4.62017 0.00198234 -1.69948e-26 -5.46076 -1.54207e-19 -4.03237)
(-4.63294 -0.00197967 4.53798e-26 -5.44977 -8.07168e-20 -4.03309)
(-4.62334 0.0019906 3.32478e-26 -5.45063 -4.00741e-25 -4.02959)
(-4.63105 -0.00202931 2.72815e-26 -5.43849 4.49301e-20 -4.02782)
(-4.62643 0.0020395 7.57065e-26 -5.43935 -8.76344e-20 -4.02632)
(-4.62942 -0.00206456 -2.05714e-25 -5.42704 -4.53383e-20 -4.02259)
(-4.62937 0.00207373 5.32296e-27 -5.42789 1.07777e-19 -4.02291)
(-4.62798 -0.00209634 -2.44089e-26 -5.41541 -4.86632e-20 -4.01736)
(-4.63209 0.00210432 -1.55707e-25 -5.41625 4.77803e-20 -4.01934)
(-4.62674 -0.00212385 1.21431e-25 -5.40361 4.8797e-20 -4.01215)
(-4.63461 0.00213052 6.43316e-27 -5.40445 -1.40882e-19 -4.01563)
(-4.62567 -0.002148 -2.4087e-25 -5.39169 4.33476e-21 -4.00695)
(-4.63692 0.00215334 2.71028e-25 -5.39251 9.95133e-20 -4.01178)
(-4.62478 -0.00216935 1.7844e-25 -5.37965 -5.32272e-20 -4.00177)
(-4.63903 0.00217338 6.9804e-26 -5.38046 4.11113e-20 -4.0078)
(-4.62404 -0.00218832 -1.19817e-25 -5.3675 6.72372e-20 -3.99662)
(-4.64095 0.00219108 -2.57438e-25 -5.3683 -6.68098e-20 -4.0037)
(-4.62347 -0.00220525 4.13229e-25 -5.35526 -6.59335e-22 -3.9915)
(-4.64268 0.00220683 1.49914e-25 -5.35606 3.35057e-20 -3.9995)
(-4.62303 -0.00222043 -2.57428e-25 -5.34295 8.02373e-21 -3.9864)
(-4.64423 0.00222091 -2.56824e-25 -5.34373 -1.30324e-20 -3.99519)
(-4.62274 -0.00223409 5.37366e-26 -5.33056 1.22627e-20 -3.98132)
(-4.6456 0.00223356 -1.89147e-27 -5.33133 -4.40211e-20 -3.99078)
(-4.62257 -0.00224642 -5.96776e-26 -5.31811 -4.3767e-20 -3.97628)
(-4.64682 0.00224499 5.31796e-26 -5.31886 3.68714e-20 -3.98628)
(-4.62252 -0.0022576 -4.31125e-26 -5.3056 6.437e-20 -3.97125)
(-4.64787 0.00225537 -6.30988e-26 -5.30634 3.21489e-21 -3.98169)
(-4.62259 -0.00226778 -1.85711e-25 -5.29304 -7.35569e-20 -3.96625)
(-4.64879 0.00226481 2.89834e-25 -5.29377 4.8902e-21 -3.97703)
(-4.62275 -0.00227708 1.1238e-25 -5.28043 -9.79614e-21 -3.96128)
(-4.64956 0.00227345 2.1389e-27 -5.28115 -3.13885e-20 -3.97229)
(-4.62301 -0.0022856 -3.44587e-26 -5.26778 -9.10535e-21 -3.95632)
(-4.6502 0.00228138 -1.97621e-26 -5.26848 3.01278e-21 -3.96748)
(-4.62336 -0.00229345 -4.97476e-25 -5.25509 9.80838e-20 -3.95139)
(-4.65072 0.00228869 1.51659e-26 -5.25578 -3.61224e-20 -3.96261)
(-4.62378 -0.00230069 1.16348e-25 -5.24237 -6.43975e-20 -3.94647)
(-4.65114 0.00229544 -2.68002e-26 -5.24305 3.38642e-20 -3.95768)
(-4.62427 -0.00230742 -1.74637e-25 -5.22962 -2.61662e-20 -3.94156)
(-4.65144 0.00230171 1.31054e-26 -5.23028 6.6485e-21 -3.9527)
(-4.62483 -0.00231368 5.93842e-26 -5.21684 8.80731e-20 -3.93667)
(-4.65166 0.00230754 -2.02402e-26 -5.21749 -1.79044e-20 -3.94766)
(-4.62543 -0.00231954 2.72818e-25 -5.20403 -3.03225e-20 -3.93179)
(-4.65179 0.002313 1.18662e-25 -5.20466 -2.91661e-21 -3.94259)
(-4.62609 -0.00232504 -7.64272e-26 -5.1912 -5.41775e-20 -3.92692)
(-4.65184 0.00231811 -1.00249e-26 -5.19182 5.67702e-20 -3.93747)
(-4.62678 -0.00233022 -2.79564e-25 -5.17835 4.20956e-20 -3.92205)
(-4.65182 0.00232293 2.04e-25 -5.17895 -2.99973e-20 -3.93231)
(-4.62751 -0.00233513 2.14066e-26 -5.16547 2.95507e-21 -3.91719)
(-4.65174 0.00232749 -4.0592e-25 -5.16606 -3.57907e-20 -3.92713)
(-4.62826 -0.00233979 -7.57467e-26 -5.15257 3.6105e-21 -3.91234)
(-4.65161 0.00233183 9.83752e-26 -5.15315 5.94999e-20 -3.92191)
(-4.62903 -0.00234424 -7.8517e-26 -5.13966 -3.93035e-20 -3.90748)
(-4.65144 0.00233597 5.76852e-26 -5.14022 1.51475e-20 -3.91667)
(-4.62981 -0.00234851 -7.09674e-26 -5.12673 3.27632e-20 -3.90262)
(-4.65122 0.00233995 1.0235e-26 -5.12728 -5.09245e-20 -3.91141)
(-4.63061 -0.00235261 -1.02242e-25 -5.11378 -3.15655e-20 -3.89776)
(-4.65097 0.0023438 2.52141e-25 -5.11432 6.56361e-21 -3.90612)
(-4.63141 -0.00235658 -4.00742e-26 -5.10082 1.33038e-20 -3.8929)
(-4.6507 0.00234753 -4.02793e-25 -5.10134 3.55288e-20 -3.90082)
(-4.63221 -0.00236044 -1.03962e-26 -5.08784 2.16696e-20 -3.88802)
(-4.65041 0.00235119 3.34228e-25 -5.08835 1.25135e-20 -3.89551)
(-4.633 -0.00236421 1.9246e-26 -5.07485 -2.93234e-21 -3.88314)
(-4.6501 0.00235478 -5.56439e-26 -5.07535 -4.2258e-20 -3.89019)
(-4.63378 -0.0023679 -1.2546e-26 -5.06184 -3.30756e-20 -3.87825)
(-4.64979 0.00235834 1.53308e-25 -5.06233 -1.25659e-20 -3.88485)
(-4.63456 -0.00237155 1.03681e-25 -5.04882 3.63846e-21 -3.87335)
(-4.64947 0.00236188 1.43998e-25 -5.0493 3.24156e-20 -3.87951)
(-4.63531 -0.00237517 5.98324e-27 -5.03579 5.89304e-20 -3.86844)
(-4.64915 0.00236544 2.53782e-26 -5.03625 -1.3183e-20 -3.87417)
(-4.63605 -0.00237878 -3.01656e-26 -5.02274 -2.94583e-20 -3.86352)