/*--------------------------------*- C++ -*----------------------------------*\
| =========                 |                                                 |
| \\      /  F ield         | foam-extend: Open Source CFD                    |
|  \\    /   O peration     | Version:     3.1                                |
|   \\  /    A nd           | Web:         http://www.extend-project.de       |
|    \\/     M anipulation  |                                                 |
\*---------------------------------------------------------------------------*/
FoamFile
{
    version     2.0;
    format      ascii;
    class       volScalarField;
    location    "0.005";
    object      sigmaEq;
}
// * * * * * * * * * * * * * * * * * * * * * * * * * * * * * * * * * * * * * //

dimensions      [1 -1 -2 0 0 0 0];

internalField   nonuniform List<scalar> 
328
(
1.61162
1.49402
1.4866
1.62269
1.32971
1.1693
1.1647
1.34185
1.18709
0.997921
1.00085
1.20604
1.15616
1.00771
1.01695
1.1793
1.17203
1.08261
1.09521
1.19801
1.19607
1.16594
1.17958
1.22313
1.2173
1.23216
1.24582
1.24466
1.23269
1.27565
1.28886
1.25985
1.24327
1.29934
1.31193
1.26993
1.25025
1.30829
1.32018
1.27619
1.25475
1.30777
1.31896
1.27975
1.25745
1.302
1.31248
1.28132
1.25879
1.294
1.30376
1.28135
1.25906
1.28562
1.29464
1.28014
1.25842
1.27779
1.28607
1.27788
1.25703
1.27086
1.27838
1.27475
1.25499
1.26481
1.27153
1.27087
1.25239
1.25939
1.26532
1.26637
1.24928
1.25435
1.25946
1.26131
1.24569
1.24942
1.25369
1.25574
1.24163
1.24438
1.24782
1.2497
1.2371
1.23907
1.24168
1.2432
1.23189
1.23317
1.23494
1.23599
1.22606
1.22674
1.22769
1.22824
1.22006
1.22023
1.22044
1.22052
1.21392
1.21363
1.21319
1.21285
1.20765
1.20698
1.20596
1.20525
1.20129
1.20028
1.19876
1.19773
1.19485
1.19355
1.19159
1.19029
1.18834
1.18679
1.18447
1.18294
1.18177
1.18003
1.1774
1.17569
1.17517
1.17327
1.17038
1.16853
1.16854
1.16651
1.16343
1.16147
1.16189
1.15978
1.15655
1.1545
1.15524
1.15307
1.14973
1.14764
1.14859
1.14639
1.14299
1.14088
1.14195
1.13975
1.13632
1.13421
1.13534
1.13315
1.12973
1.12765
1.12875
1.1266
1.12322
1.12118
1.1222
1.12011
1.11679
1.1148
1.1157
1.11368
1.11044
1.10852
1.10925
1.10731
1.10417
1.10233
1.10285
1.101
1.09798
1.09624
1.09652
1.09477
1.09188
1.09024
1.09026
1.08861
1.08587
1.08432
1.08407
1.08254
1.07994
1.0785
1.07796
1.07654
1.0741
1.07276
1.07194
1.07063
1.06835
1.06712
1.066
1.0648
1.06268
1.06156
1.06016
1.05907
1.05711
1.05609
1.05441
1.05343
1.05162
1.05071
1.04876
1.04788
1.04623
1.04541
1.04322
1.04243
1.04093
1.04021
1.03778
1.03709
1.03573
1.03509
1.03244
1.03184
1.03062
1.03007
1.02722
1.0267
1.02561
1.02513
1.0221
1.02166
1.02069
1.02029
1.0171
1.01673
1.01588
1.01554
1.01222
1.0119
1.01116
1.01088
1.00745
1.00719
1.00655
1.00632
1.0028
1.00259
1.00204
1.00186
0.998271
0.998107
0.997637
0.997499
0.993861
0.993735
0.993339
0.993238
0.989572
0.989479
0.989149
0.98908
0.985405
0.98534
0.98507
0.985027
0.981362
0.981319
0.981101
0.981081
0.977442
0.977418
0.977245
0.977243
0.973647
0.973638
0.973504
0.973517
0.969978
0.96998
0.969878
0.969902
0.966435
0.966444
0.96637
0.966403
0.963018
0.963032
0.962981
0.963019
0.959728
0.959745
0.959712
0.959754
0.956566
0.956583
0.956565
0.956608
0.953532
0.953546
0.953539
0.953584
0.950625
0.950635
0.950636
0.950681
0.947844
0.947848
0.947854
0.9479
0.945189
0.945186
0.945195
0.945241
0.94265
0.942642
0.942653
0.942696
0.940224
0.940234
0.940245
0.940263
0.937875
0.937945
0.937955
0.937906
0.93573
0.935998
0.936007
0.935754
0.934021
0.934339
0.934346
0.934042
)
;

boundaryField
{
    plateFix
    {
        type            calculated;
        value           nonuniform List<scalar> 4(1.94928 1.56906 1.56006 1.96829);
    }
    plate
    {
        type            calculated;
        value           nonuniform List<scalar> 
168
(
1.10717
1.11744
1.12155
1.13769
1.15505
1.17941
1.17372
1.20105
1.19138
1.22075
1.20323
1.23329
1.21375
1.24399
1.22271
1.25269
1.2309
1.26034
1.23809
1.26672
1.24418
1.27177
1.24895
1.27527
1.25233
1.27718
1.25433
1.27753
1.25505
1.27646
1.25466
1.27415
1.25333
1.27079
1.25121
1.26658
1.24842
1.26164
1.24505
1.25611
1.24115
1.25003
1.23675
1.24346
1.23167
1.23619
1.22594
1.22834
1.22003
1.22054
1.21397
1.21279
1.20778
1.20512
1.20149
1.19754
1.1951
1.19004
1.18864
1.18264
1.18212
1.17534
1.17555
1.16815
1.16895
1.16106
1.16233
1.15407
1.15569
1.14719
1.14906
1.14042
1.14243
1.13374
1.13582
1.12717
1.12923
1.1207
1.12268
1.11433
1.11617
1.10805
1.10971
1.10187
1.1033
1.09579
1.09696
1.0898
1.09068
1.0839
1.08447
1.0781
1.07835
1.07238
1.07231
1.06675
1.06635
1.06121
1.06049
1.05576
1.05472
1.0504
1.04905
1.04513
1.04348
1.03994
1.03802
1.03484
1.03267
1.02984
1.02742
1.02492
1.02229
1.0201
1.01727
1.01536
1.01237
1.01073
1.00758
1.00618
1.00292
1.00174
0.998374
0.997389
0.99395
0.993141
0.989648
0.988996
0.98547
0.984954
0.981415
0.981018
0.977486
0.97719
0.973682
0.973472
0.970005
0.969866
0.966455
0.966373
0.963032
0.962995
0.959737
0.959735
0.95657
0.956594
0.953532
0.953574
0.950622
0.950675
0.94784
0.947898
0.945186
0.945244
0.942656
0.942712
0.940248
0.940298
0.937941
0.937984
0.935724
0.935761
0.933466
0.934576
0.934364
0.934371
0.934599
0.933498
)
;
    }
    frontAndBackPlanes
    {
        type            empty;
    }
}


// ************************************************************************* //
