/*--------------------------------*- C++ -*----------------------------------*\
| =========                 |                                                 |
| \\      /  F ield         | foam-extend: Open Source CFD                    |
|  \\    /   O peration     | Version:     3.1                                |
|   \\  /    A nd           | Web:         http://www.extend-project.de       |
|    \\/     M anipulation  |                                                 |
\*---------------------------------------------------------------------------*/
FoamFile
{
    version     2.0;
    format      ascii;
    class       volVectorField;
    location    "0.005";
    object      Vs;
}
// * * * * * * * * * * * * * * * * * * * * * * * * * * * * * * * * * * * * * //

dimensions      [0 1 -1 0 0 0 0];

internalField   nonuniform List<vector> 
328
(
(-3.45875e-08 3.58318e-07 0)
(-9.30711e-08 7.6336e-08 0)
(-9.11339e-08 -7.60521e-08 0)
(-2.49995e-08 -3.71621e-07 0)
(-1.11116e-07 9.18217e-07 0)
(-2.57299e-07 2.20176e-07 0)
(-2.50538e-07 -2.24958e-07 0)
(-8.16627e-08 -9.54546e-07 0)
(-1.60859e-07 1.33215e-06 0)
(-3.5802e-07 3.5297e-07 0)
(-3.44365e-07 -3.69016e-07 0)
(-1.08652e-07 -1.39073e-06 0)
(-2.06308e-07 1.62242e-06 0)
(-4.28303e-07 4.63553e-07 0)
(-4.06784e-07 -4.97262e-07 0)
(-1.29598e-07 -1.70465e-06 0)
(-2.4371e-07 1.81824e-06 0)
(-4.64412e-07 5.47756e-07 0)
(-4.34048e-07 -6.05815e-07 0)
(-1.40683e-07 -1.92761e-06 0)
(-2.77861e-07 1.94198e-06 0)
(-4.78993e-07 6.04055e-07 0)
(-4.39156e-07 -6.93805e-07 0)
(-1.47015e-07 -2.08382e-06 0)
(-3.08438e-07 2.01195e-06 0)
(-4.76122e-07 6.3412e-07 0)
(-4.26258e-07 -7.6375e-07 0)
(-1.48348e-07 -2.19322e-06 0)
(-3.36208e-07 2.04161e-06 0)
(-4.62548e-07 6.40779e-07 0)
(-4.02221e-07 -8.19572e-07 0)
(-1.45571e-07 -2.27092e-06 0)
(-3.60973e-07 2.04129e-06 0)
(-4.42387e-07 6.27594e-07 0)
(-3.71207e-07 -8.66117e-07 0)
(-1.38563e-07 -2.32878e-06 0)
(-3.82787e-07 2.01841e-06 0)
(-4.19483e-07 5.9793e-07 0)
(-3.37107e-07 -9.08236e-07 0)
(-1.27468e-07 -2.37591e-06 0)
(-4.01675e-07 1.97828e-06 0)
(-3.96355e-07 5.54627e-07 0)
(-3.02471e-07 -9.5044e-07 0)
(-1.12403e-07 -2.41936e-06 0)
(-4.17859e-07 1.92437e-06 0)
(-3.74781e-07 4.99698e-07 0)
(-2.69116e-07 -9.96598e-07 0)
(-9.37102e-08 -2.46449e-06 0)
(-4.31685e-07 1.85867e-06 0)
(-3.55721e-07 4.34277e-07 0)
(-2.38044e-07 -1.04989e-06 0)
(-7.18792e-08 -2.51535e-06 0)
(-4.43621e-07 1.78199e-06 0)
(-3.39593e-07 3.58654e-07 0)
(-2.09726e-07 -1.11282e-06 0)
(-4.75542e-08 -2.57496e-06 0)
(-4.54191e-07 1.69419e-06 0)
(-3.26415e-07 2.7241e-07 0)
(-1.84246e-07 -1.18738e-06 0)
(-2.1479e-08 -2.64559e-06 0)
(-4.63948e-07 1.59446e-06 0)
(-3.16009e-07 1.74576e-07 0)
(-1.6151e-07 -1.27515e-06 0)
(5.53455e-09 -2.72898e-06 0)
(-4.73431e-07 1.48149e-06 0)
(-3.08147e-07 6.38067e-08 0)
(-1.41386e-07 -1.3775e-06 0)
(3.26337e-08 -2.82655e-06 0)
(-4.83165e-07 1.35373e-06 0)
(-3.02669e-07 -6.14667e-08 0)
(-1.23834e-07 -1.49568e-06 0)
(5.89294e-08 -2.93953e-06 0)
(-4.93656e-07 1.20948e-06 0)
(-2.99565e-07 -2.0291e-07 0)
(-1.08984e-07 -1.6309e-06 0)
(8.34876e-08 -3.06912e-06 0)
(-5.05424e-07 1.04703e-06 0)
(-2.99022e-07 -3.62186e-07 0)
(-9.71827e-08 -1.78438e-06 0)
(1.05301e-07 -3.2165e-06 0)
(-5.19017e-07 8.64723e-07 0)
(-3.01438e-07 -5.40881e-07 0)
(-8.90131e-08 -1.95734e-06 0)
(1.23262e-07 -3.38281e-06 0)
(-5.35089e-07 6.61069e-07 0)
(-3.07456e-07 -7.40441e-07 0)
(-8.53207e-08 -2.15093e-06 0)
(1.36101e-07 -3.5692e-06 0)
(-5.55071e-07 4.26147e-07 0)
(-3.18313e-07 -9.70548e-07 0)
(-8.72503e-08 -2.37439e-06 0)
(1.42642e-07 -3.78454e-06 0)
(-5.79579e-07 1.66508e-07 0)
(-3.35342e-07 -1.22462e-06 0)
(-9.69222e-08 -2.62115e-06 0)
(1.3997e-07 -4.02238e-06 0)
(-6.07755e-07 -9.90949e-08 0)
(-3.5815e-07 -1.48433e-06 0)
(-1.14451e-07 -2.87334e-06 0)
(1.27395e-07 -4.2655e-06 0)
(-6.40024e-07 -3.68642e-07 0)
(-3.87036e-07 -1.74765e-06 0)
(-1.40023e-07 -3.12892e-06 0)
(1.04837e-07 -4.51186e-06 0)
(-6.76851e-07 -6.40198e-07 0)
(-4.22343e-07 -2.01267e-06 0)
(-1.73865e-07 -3.38599e-06 0)
(7.21684e-08 -4.75958e-06 0)
(-7.18663e-07 -9.11945e-07 0)
(-4.64379e-07 -2.27758e-06 0)
(-2.16173e-07 -3.64273e-06 0)
(2.93036e-08 -5.00685e-06 0)
(-7.65888e-07 -1.18219e-06 0)
(-5.13456e-07 -2.54069e-06 0)
(-2.67146e-07 -3.89749e-06 0)
(-2.3843e-08 -5.25202e-06 0)
(-8.18942e-07 -1.44934e-06 0)
(-5.69875e-07 -2.80044e-06 0)
(-3.2697e-07 -4.14869e-06 0)
(-8.73452e-08 -5.49354e-06 0)
(-8.78233e-07 -1.71195e-06 0)
(-6.33931e-07 -3.05538e-06 0)
(-3.95827e-07 -4.39489e-06 0)
(-1.61272e-07 -5.72996e-06 0)
(-9.44163e-07 -1.96867e-06 0)
(-7.05911e-07 -3.30415e-06 0)
(-4.73893e-07 -4.63476e-06 0)
(-2.45687e-07 -5.95996e-06 0)
(-1.01713e-06 -2.21826e-06 0)
(-7.86099e-07 -3.54555e-06 0)
(-5.61339e-07 -4.86708e-06 0)
(-3.40651e-07 -6.18232e-06 0)
(-1.09751e-06 -2.45961e-06 0)
(-8.74772e-07 -3.77845e-06 0)
(-6.58332e-07 -5.09074e-06 0)
(-4.46221e-07 -6.39595e-06 0)
(-1.1857e-06 -2.69172e-06 0)
(-9.72201e-07 -4.00186e-06 0)
(-7.65037e-07 -5.30474e-06 0)
(-5.62453e-07 -6.59984e-06 0)
(-1.28206e-06 -2.91369e-06 0)
(-1.07865e-06 -4.21489e-06 0)
(-8.81615e-07 -5.50821e-06 0)
(-6.89402e-07 -6.79312e-06 0)
(-1.38696e-06 -3.12472e-06 0)
(-1.19439e-06 -4.41676e-06 0)
(-1.00822e-06 -5.70035e-06 0)
(-8.27123e-07 -6.97501e-06 0)
(-1.50076e-06 -3.32413e-06 0)
(-1.31968e-06 -4.60677e-06 0)
(-1.14502e-06 -5.8805e-06 0)
(-9.75671e-07 -7.14482e-06 0)
(-1.62382e-06 -3.51135e-06 0)
(-1.45476e-06 -4.78437e-06 0)
(-1.29216e-06 -6.04809e-06 0)
(-1.1351e-06 -7.302e-06 0)
(-1.75647e-06 -3.68588e-06 0)
(-1.59988e-06 -4.94906e-06 0)
(-1.44979e-06 -6.20262e-06 0)
(-1.30547e-06 -7.44606e-06 0)
(-1.89906e-06 -3.84734e-06 0)
(-1.75529e-06 -5.10047e-06 0)
(-1.61807e-06 -6.34373e-06 0)
(-1.48684e-06 -7.57662e-06 0)
(-2.0519e-06 -3.99544e-06 0)
(-1.92124e-06 -5.23831e-06 0)
(-1.79715e-06 -6.47113e-06 0)
(-1.67927e-06 -7.69341e-06 0)
(-2.21533e-06 -4.12996e-06 0)
(-2.09794e-06 -5.36237e-06 0)
(-1.98717e-06 -6.58462e-06 0)
(-1.88282e-06 -7.79621e-06 0)
(-2.38964e-06 -4.25079e-06 0)
(-2.28563e-06 -5.47255e-06 0)
(-2.18828e-06 -6.68408e-06 0)
(-2.09755e-06 -7.88491e-06 0)
(-2.57515e-06 -4.35788e-06 0)
(-2.48454e-06 -5.5688e-06 0)
(-2.40064e-06 -6.76949e-06 0)
(-2.32355e-06 -7.95949e-06 0)
(-2.77214e-06 -4.45127e-06 0)
(-2.69488e-06 -5.65116e-06 0)
(-2.62438e-06 -6.84089e-06 0)
(-2.56088e-06 -8.01999e-06 0)
(-2.98089e-06 -4.53107e-06 0)
(-2.91686e-06 -5.71975e-06 0)
(-2.85964e-06 -6.89839e-06 0)
(-2.80961e-06 -8.06651e-06 0)
(-3.20167e-06 -4.59744e-06 0)
(-3.15069e-06 -5.77476e-06 0)
(-3.10659e-06 -6.94218e-06 0)
(-3.06984e-06 -8.09924e-06 0)
(-3.43474e-06 -4.65063e-06 0)
(-3.39658e-06 -5.81641e-06 0)
(-3.36534e-06 -6.97249e-06 0)
(-3.34163e-06 -8.11843e-06 0)
(-3.68035e-06 -4.69092e-06 0)
(-3.65471e-06 -5.84501e-06 0)
(-3.63605e-06 -6.98964e-06 0)
(-3.62508e-06 -8.12437e-06 0)
(-3.93873e-06 -4.71866e-06 0)
(-3.92527e-06 -5.8609e-06 0)
(-3.91885e-06 -6.99396e-06 0)
(-3.92027e-06 -8.11741e-06 0)
(-4.21011e-06 -4.73423e-06 0)
(-4.20844e-06 -5.86448e-06 0)
(-4.21388e-06 -6.98587e-06 0)
(-4.22731e-06 -8.09796e-06 0)
(-4.49468e-06 -4.73805e-06 0)
(-4.50439e-06 -5.85619e-06 0)
(-4.52128e-06 -6.9658e-06 0)
(-4.54628e-06 -8.06644e-06 0)
(-4.79267e-06 -4.73061e-06 0)
(-4.8133e-06 -5.8365e-06 0)
(-4.84117e-06 -6.93421e-06 0)
(-4.87729e-06 -8.02334e-06 0)
(-5.10424e-06 -4.71238e-06 0)
(-5.1353e-06 -5.8059e-06 0)
(-5.17369e-06 -6.89163e-06 0)
(-5.22043e-06 -7.96915e-06 0)
(-5.42956e-06 -4.68388e-06 0)
(-5.47057e-06 -5.76493e-06 0)
(-5.51896e-06 -6.83857e-06 0)
(-5.57581e-06 -7.90441e-06 0)
(-5.76881e-06 -4.64566e-06 0)
(-5.81923e-06 -5.71412e-06 0)
(-5.8771e-06 -6.77558e-06 0)
(-5.94353e-06 -7.82967e-06 0)
(-6.12212e-06 -4.59826e-06 0)
(-6.18141e-06 -5.65404e-06 0)
(-6.24822e-06 -6.70324e-06 0)
(-6.32369e-06 -7.74549e-06 0)
(-6.48962e-06 -4.54224e-06 0)
(-6.55724e-06 -5.58525e-06 0)
(-6.63245e-06 -6.62211e-06 0)
(-6.7164e-06 -7.65245e-06 0)
(-6.87143e-06 -4.47818e-06 0)
(-6.94683e-06 -5.50834e-06 0)
(-7.02989e-06 -6.53278e-06 0)
(-7.12175e-06 -7.55113e-06 0)
(-7.26765e-06 -4.40664e-06 0)
(-7.35028e-06 -5.42389e-06 0)
(-7.44063e-06 -6.43583e-06 0)
(-7.53985e-06 -7.44212e-06 0)
(-7.67837e-06 -4.3282e-06 0)
(-7.76768e-06 -5.33246e-06 0)
(-7.86478e-06 -6.33184e-06 0)
(-7.97079e-06 -7.326e-06 0)
(-8.10367e-06 -4.2434e-06 0)
(-8.19911e-06 -5.23463e-06 0)
(-8.30241e-06 -6.22138e-06 0)
(-8.41466e-06 -7.20336e-06 0)
(-8.5436e-06 -4.15281e-06 0)
(-8.64465e-06 -5.13095e-06 0)
(-8.75361e-06 -6.10503e-06 0)
(-8.87156e-06 -7.07475e-06 0)
(-8.99821e-06 -4.05696e-06 0)
(-9.10435e-06 -5.02199e-06 0)
(-9.21844e-06 -5.98335e-06 0)
(-9.34155e-06 -6.94075e-06 0)
(-9.46753e-06 -3.95639e-06 0)
(-9.57825e-06 -4.90826e-06 0)
(-9.69697e-06 -5.85686e-06 0)
(-9.82472e-06 -6.8019e-06 0)
(-9.95157e-06 -3.85158e-06 0)
(-1.00664e-05 -4.79029e-06 0)
(-1.01892e-05 -5.72609e-06 0)
(-1.03211e-05 -6.65871e-06 0)
(-1.04503e-05 -3.74303e-06 0)
(-1.05688e-05 -4.66857e-06 0)
(-1.06953e-05 -5.59154e-06 0)
(-1.08309e-05 -6.51172e-06 0)
(-1.09638e-05 -3.63121e-06 0)
(-1.10854e-05 -4.54357e-06 0)
(-1.12152e-05 -5.4537e-06 0)
(-1.13539e-05 -6.36138e-06 0)
(-1.14919e-05 -3.51654e-06 0)
(-1.16163e-05 -4.41574e-06 0)
(-1.17489e-05 -5.31302e-06 0)
(-1.18904e-05 -6.20818e-06 0)
(-1.20346e-05 -3.39944e-06 0)
(-1.21614e-05 -4.2855e-06 0)
(-1.22964e-05 -5.16992e-06 0)
(-1.24402e-05 -6.05254e-06 0)
(-1.25919e-05 -3.28029e-06 0)
(-1.27207e-05 -4.15323e-06 0)
(-1.28577e-05 -5.02481e-06 0)
(-1.30036e-05 -5.89486e-06 0)
(-1.31637e-05 -3.15945e-06 0)
(-1.32942e-05 -4.01931e-06 0)
(-1.34328e-05 -4.87805e-06 0)
(-1.35803e-05 -5.73553e-06 0)
(-1.37498e-05 -3.03725e-06 0)
(-1.38817e-05 -3.88407e-06 0)
(-1.40217e-05 -4.72998e-06 0)
(-1.41705e-05 -5.57489e-06 0)
(-1.43501e-05 -2.91398e-06 0)
(-1.44832e-05 -3.74781e-06 0)
(-1.46243e-05 -4.58091e-06 0)
(-1.4774e-05 -5.41324e-06 0)
(-1.49646e-05 -2.78991e-06 0)
(-1.50985e-05 -3.61081e-06 0)
(-1.52405e-05 -4.43109e-06 0)
(-1.53909e-05 -5.25085e-06 0)
(-1.5593e-05 -2.66532e-06 0)
(-1.57277e-05 -3.47332e-06 0)
(-1.58703e-05 -4.28075e-06 0)
(-1.60212e-05 -5.08792e-06 0)
(-1.62352e-05 -2.54044e-06 0)
(-1.63706e-05 -3.33558e-06 0)
(-1.65136e-05 -4.13005e-06 0)
(-1.66646e-05 -4.92462e-06 0)
(-1.68909e-05 -2.41553e-06 0)
(-1.70272e-05 -3.1978e-06 0)
(-1.71705e-05 -3.97912e-06 0)
(-1.73211e-05 -4.76103e-06 0)
(-1.75599e-05 -2.2906e-06 0)
(-1.76976e-05 -3.06002e-06 0)
(-1.78411e-05 -3.82818e-06 0)
(-1.79906e-05 -4.59741e-06 0)
(-1.82418e-05 -2.16463e-06 0)
(-1.83815e-05 -2.92179e-06 0)
(-1.85251e-05 -3.6779e-06 0)
(-1.86727e-05 -4.43497e-06 0)
(-1.89363e-05 -2.03097e-06 0)
(-1.90783e-05 -2.78112e-06 0)
(-1.92219e-05 -3.53038e-06 0)
(-1.93673e-05 -4.28048e-06 0)
)
;

boundaryField
{
    plateFix
    {
        type            calculated;
        value           uniform (0 0 0);
    }
    plate
    {
        type            calculated;
        value           nonuniform List<vector> 
168
(
(1.53691e-06 9.54212e-07 1.21087e-24)
(1.6073e-06 -9.9957e-07 -2.15223e-24)
(1.03035e-06 1.53452e-06 -6.74382e-24)
(1.11237e-06 -1.60399e-06 -2.51188e-24)
(6.0994e-07 1.97823e-06 9.90406e-25)
(7.11728e-07 -2.07112e-06 8.54162e-25)
(2.90752e-07 2.28138e-06 -9.65011e-25)
(4.18551e-07 -2.39801e-06 -2.49381e-24)
(6.20966e-08 2.48814e-06 3.17204e-24)
(2.21007e-07 -2.6317e-06 6.93576e-25)
(-1.03756e-07 2.61883e-06 -2.54901e-24)
(8.99728e-08 -2.79426e-06 3.97621e-24)
(-2.23364e-07 2.69472e-06 3.9046e-24)
(8.09042e-09 -2.90884e-06 7.91173e-25)
(-3.10601e-07 2.72933e-06 -2.95693e-24)
(-3.91195e-08 -2.99055e-06 -2.71595e-24)
(-3.74422e-07 2.73342e-06 -2.68579e-25)
(-6.09865e-08 -3.05182e-06 9.16161e-25)
(-4.21575e-07 2.71439e-06 3.31496e-24)
(-6.45335e-08 -3.10167e-06 -1.09459e-25)
(-4.56816e-07 2.67749e-06 -1.64893e-24)
(-5.47284e-08 -3.14717e-06 1.05864e-24)
(-4.83754e-07 2.62615e-06 -4.38801e-25)
(-3.53804e-08 -3.1936e-06 5.33015e-25)
(-5.05081e-07 2.56235e-06 2.09002e-25)
(-9.3935e-09 -3.24501e-06 -8.94803e-25)
(-5.22836e-07 2.48691e-06 6.42683e-27)
(2.0945e-08 -3.30445e-06 -3.44523e-25)
(-5.38529e-07 2.39976e-06 1.19498e-24)
(5.38316e-08 -3.37425e-06 2.90152e-27)
(-5.5326e-07 2.30016e-06 2.47621e-25)
(8.78145e-08 -3.45621e-06 3.43165e-25)
(-5.67814e-07 2.1869e-06 -1.2723e-24)
(1.21691e-07 -3.55183e-06 -9.51918e-25)
(-5.82759e-07 2.05847e-06 4.68719e-25)
(1.54403e-07 -3.66243e-06 1.86814e-24)
(-5.98531e-07 1.91324e-06 -6.62371e-26)
(1.84943e-07 -3.78925e-06 -1.20382e-24)
(-6.15519e-07 1.74953e-06 -6.23046e-25)
(2.12268e-07 -3.9335e-06 -3.32382e-27)
(-6.3412e-07 1.56569e-06 -5.5158e-25)
(2.35234e-07 -4.09637e-06 1.03617e-24)
(-6.54833e-07 1.36024e-06 3.01994e-25)
(2.5251e-07 -4.27897e-06 -9.47487e-25)
(-6.79015e-07 1.12318e-06 4.28651e-25)
(2.62996e-07 -4.49007e-06 -1.47874e-25)
(-7.06961e-07 8.60983e-07 -7.32642e-25)
(2.63564e-07 -4.72322e-06 -2.56413e-25)
(-7.37551e-07 5.92653e-07 5.05366e-25)
(2.53178e-07 -4.9616e-06 3.12527e-25)
(-7.7125e-07 3.20198e-07 1.3407e-24)
(2.31822e-07 -5.20315e-06 5.72784e-25)
(-8.08579e-07 4.5565e-08 -9.30544e-25)
(1.99427e-07 -5.446e-06 -1.16942e-24)
(-8.50022e-07 -2.29419e-07 4.80128e-25)
(1.5597e-07 -5.68836e-06 7.29931e-25)
(-8.96065e-07 -5.03054e-07 -1.71072e-25)
(1.01421e-07 -5.92857e-06 6.10543e-25)
(-9.47181e-07 -7.73756e-07 -3.38678e-25)
(3.57653e-08 -6.16509e-06 -6.04381e-25)
(-1.00384e-06 -1.04006e-06 3.0991e-25)
(-4.10091e-08 -6.39648e-06 3.86083e-25)
(-1.06649e-06 -1.30061e-06 -5.86349e-25)
(-1.28909e-07 -6.62142e-06 -5.4048e-25)
(-1.1356e-06 -1.55419e-06 4.58092e-26)
(-2.27938e-07 -6.83868e-06 1.40321e-25)
(-1.2116e-06 -1.79966e-06 6.98231e-25)
(-3.38098e-07 -7.04718e-06 1.55038e-25)
(-1.29493e-06 -2.03601e-06 -8.23257e-25)
(-4.5939e-07 -7.24593e-06 -2.36611e-26)
(-1.38601e-06 -2.26236e-06 4.27564e-25)
(-5.91817e-07 -7.43403e-06 -2.94682e-25)
(-1.48527e-06 -2.4779e-06 4.02974e-25)
(-7.35378e-07 -7.61071e-06 1.60127e-25)
(-1.59312e-06 -2.68195e-06 -1.80942e-25)
(-8.90079e-07 -7.7753e-06 -6.96729e-26)
(-1.70995e-06 -2.87392e-06 -5.53534e-25)
(-1.05593e-06 -7.92723e-06 -3.80229e-25)
(-1.83617e-06 -3.05333e-06 3.99771e-25)
(-1.23292e-06 -8.06601e-06 5.50144e-25)
(-1.97214e-06 -3.21979e-06 -1.50844e-25)
(-1.42109e-06 -8.19127e-06 1.1195e-26)
(-2.11826e-06 -3.37298e-06 -2.52096e-25)
(-1.62043e-06 -8.30272e-06 -2.45416e-25)
(-2.27487e-06 -3.51272e-06 3.28085e-25)
(-1.83098e-06 -8.40017e-06 -5.19549e-26)
(-2.44234e-06 -3.63887e-06 1.22931e-25)
(-2.05275e-06 -8.48349e-06 6.28786e-25)
(-2.62099e-06 -3.75138e-06 -8.43588e-26)
(-2.28578e-06 -8.55266e-06 -4.00479e-25)
(-2.81116e-06 -3.85029e-06 -2.08947e-25)
(-2.5301e-06 -8.60771e-06 -7.36366e-26)
(-3.01316e-06 -3.9357e-06 -2.47107e-26)
(-2.78576e-06 -8.64876e-06 3.6557e-26)
(-3.2273e-06 -4.00779e-06 3.91268e-25)
(-3.0528e-06 -8.676e-06 5.40821e-25)
(-3.45386e-06 -4.06677e-06 -5.90874e-25)
(-3.33127e-06 -8.68965e-06 -3.76381e-25)
(-3.69311e-06 -4.11294e-06 4.24798e-25)
(-3.62123e-06 -8.69002e-06 -4.27626e-25)
(-3.94531e-06 -4.14663e-06 -3.92704e-25)
(-3.92276e-06 -8.67747e-06 2.72463e-25)
(-4.21072e-06 -4.16824e-06 2.47969e-25)
(-4.23592e-06 -8.65238e-06 3.13677e-25)
(-4.48955e-06 -4.17817e-06 7.06647e-27)
(-4.56079e-06 -8.61519e-06 -5.54076e-25)
(-4.78202e-06 -4.1769e-06 4.05649e-25)
(-4.89744e-06 -8.56638e-06 1.33245e-25)
(-5.08834e-06 -4.1649e-06 -2.3672e-25)
(-5.24598e-06 -8.50645e-06 2.79743e-25)
(-5.40867e-06 -4.1427e-06 -2.06596e-25)
(-5.60648e-06 -8.43594e-06 -1.33827e-25)
(-5.74319e-06 -4.11082e-06 3.18238e-26)
(-5.97905e-06 -8.35538e-06 1.01883e-25)
(-6.09206e-06 -4.06982e-06 1.22933e-25)
(-6.36377e-06 -8.26534e-06 -1.43432e-25)
(-6.4554e-06 -4.02024e-06 -2.3244e-25)
(-6.76074e-06 -8.16641e-06 9.8573e-26)
(-6.83333e-06 -3.96266e-06 -5.51362e-27)
(-7.17008e-06 -8.05916e-06 -1.0295e-25)
(-7.22596e-06 -3.89764e-06 -1.28604e-26)
(-7.59186e-06 -7.94419e-06 6.14759e-26)
(-7.63337e-06 -3.82573e-06 1.19852e-25)
(-8.02619e-06 -7.82207e-06 -1.70915e-25)
(-8.05563e-06 -3.74751e-06 5.30516e-26)
(-8.47317e-06 -7.69339e-06 3.28987e-28)
(-8.4928e-06 -3.66351e-06 -2.01433e-25)
(-8.93289e-06 -7.55872e-06 2.34105e-25)
(-8.94491e-06 -3.57428e-06 2.33417e-25)
(-9.40543e-06 -7.41863e-06 -1.87282e-25)
(-9.41198e-06 -3.48032e-06 -1.35832e-25)
(-9.89089e-06 -7.27365e-06 1.08096e-25)
(-9.89403e-06 -3.38214e-06 1.2202e-25)
(-1.03893e-05 -7.12432e-06 -2.56058e-25)
(-1.0391e-05 -3.28022e-06 -1.13652e-25)
(-1.09008e-05 -6.97115e-06 1.45379e-25)
(-1.09029e-05 -3.17502e-06 9.53613e-26)
(-1.14254e-05 -6.81462e-06 -2.683e-26)
(-1.14297e-05 -3.06697e-06 -5.83227e-26)
(-1.19632e-05 -6.65521e-06 5.31976e-26)
(-1.19714e-05 -2.95648e-06 -5.31494e-26)
(-1.25142e-05 -6.49334e-06 1.96769e-26)
(-1.25277e-05 -2.84392e-06 4.58844e-26)
(-1.30784e-05 -6.32944e-06 5.03612e-26)
(-1.30987e-05 -2.72965e-06 -2.00711e-26)
(-1.36558e-05 -6.16387e-06 2.13319e-27)
(-1.36841e-05 -2.61399e-06 -4.78045e-26)
(-1.42465e-05 -5.99698e-06 -3.07666e-26)
(-1.4284e-05 -2.49722e-06 -5.88114e-27)
(-1.48505e-05 -5.82908e-06 -5.00787e-26)
(-1.48981e-05 -2.37964e-06 7.06779e-26)
(-1.54677e-05 -5.66044e-06 2.90179e-26)
(-1.55262e-05 -2.26149e-06 -5.47114e-26)
(-1.60981e-05 -5.49127e-06 3.80546e-27)
(-1.61683e-05 -2.14301e-06 6.93033e-26)
(-1.67417e-05 -5.32173e-06 3.75421e-27)
(-1.68239e-05 -2.02445e-06 -3.09526e-28)
(-1.73982e-05 -5.15192e-06 1.54233e-26)
(-1.74925e-05 -1.9058e-06 3.01181e-27)
(-1.80673e-05 -4.98212e-06 1.52524e-26)
(-1.8172e-05 -1.78613e-06 -1.04747e-26)
(-1.87469e-05 -4.81344e-06 -4.1317e-26)
(-1.8859e-05 -1.65775e-06 7.74445e-27)
(-1.92873e-05 -1.95422e-06 -6.07434e-27)
(-1.94286e-05 -2.7091e-06 -2.77661e-27)
(-1.95723e-05 -3.45853e-06 1.95342e-27)
(-1.97182e-05 -4.21325e-06 1.14718e-26)
(-1.94338e-05 -4.65371e-06 4.23826e-27)
)
;
    }
    frontAndBackPlanes
    {
        type            empty;
    }
}


// ************************************************************************* //
