/*--------------------------------*- C++ -*----------------------------------*\
| =========                 |                                                 |
| \\      /  F ield         | foam-extend: Open Source CFD                    |
|  \\    /   O peration     | Version:  3.0                                   |
|   \\  /    A nd           | Web:         http://www.extend-project.de       |
|    \\/     M anipulation  |                                                 |
\*---------------------------------------------------------------------------*/
FoamFile
{
    version     2.0;
    format      ascii;
    class       volScalarField;
    location    "0.005";
    object      p;
}
// * * * * * * * * * * * * * * * * * * * * * * * * * * * * * * * * * * * * * //

dimensions      [0 2 -2 0 0 0 0];

internalField   nonuniform List<scalar> 
10470
(
4.51693
4.51693
4.51693
4.51692
4.51692
4.51692
4.51692
4.51691
4.51691
4.51691
4.5169
4.5169
4.51689
4.51689
4.51688
4.51688
4.51687
4.51687
4.51686
4.51686
4.51685
4.51685
4.51684
4.51684
4.53148
4.53148
4.53148
4.53147
4.53147
4.53147
4.53147
4.53146
4.53146
4.53146
4.53145
4.53145
4.53144
4.53144
4.53143
4.53142
4.53142
4.53141
4.53141
4.5314
4.5314
4.53139
4.53138
4.53138
4.54603
4.54603
4.54603
4.54603
4.54602
4.54602
4.54602
4.54601
4.54601
4.546
4.546
4.54599
4.54599
4.54598
4.54598
4.54597
4.54596
4.54596
4.54595
4.54594
4.54594
4.54593
4.54593
4.54592
4.56058
4.56058
4.56058
4.56058
4.56057
4.56057
4.56057
4.56056
4.56056
4.56055
4.56055
4.56054
4.56054
4.56053
4.56052
4.56052
4.56051
4.5605
4.5605
4.56049
4.56048
4.56047
4.56047
4.56046
4.57513
4.57513
4.57513
4.57513
4.57513
4.57512
4.57512
4.57512
4.57511
4.5751
4.5751
4.57509
4.57509
4.57508
4.57507
4.57506
4.57506
4.57505
4.57504
4.57503
4.57502
4.57502
4.57501
4.575
4.58969
4.58969
4.58968
4.58968
4.58968
4.58968
4.58967
4.58967
4.58966
4.58966
4.58965
4.58964
4.58963
4.58963
4.58962
4.58961
4.5896
4.58959
4.58958
4.58958
4.58957
4.58956
4.58955
4.58954
4.60424
4.60424
4.60424
4.60424
4.60423
4.60423
4.60422
4.60422
4.60421
4.60421
4.6042
4.60419
4.60418
4.60417
4.60417
4.60416
4.60415
4.60414
4.60413
4.60412
4.60411
4.6041
4.60409
4.60408
4.6188
4.61879
4.61879
4.61879
4.61879
4.61878
4.61878
4.61877
4.61877
4.61876
4.61875
4.61874
4.61873
4.61872
4.61871
4.6187
4.61869
4.61868
4.61867
4.61866
4.61865
4.61864
4.61863
4.61862
4.63335
4.63335
4.63335
4.63335
4.63334
4.63334
4.63333
4.63333
4.63332
4.63331
4.6333
4.63329
4.63328
4.63327
4.63326
4.63325
4.63324
4.63323
4.63322
4.6332
4.63319
4.63318
4.63317
4.63316
4.64791
4.64791
4.6479
4.6479
4.6479
4.64789
4.64789
4.64788
4.64787
4.64786
4.64785
4.64784
4.64783
4.64782
4.64781
4.6478
4.64779
4.64777
4.64776
4.64775
4.64773
4.64772
4.64771
4.6477
4.66247
4.66246
4.66246
4.66246
4.66245
4.66245
4.66244
4.66244
4.66243
4.66242
4.66241
4.6624
4.66238
4.66237
4.66236
4.66235
4.66233
4.66232
4.6623
4.66229
4.66228
4.66226
4.66225
4.66224
4.67702
4.67702
4.67702
4.67702
4.67701
4.67701
4.677
4.67699
4.67698
4.67697
4.67696
4.67695
4.67694
4.67692
4.67691
4.67689
4.67688
4.67686
4.67685
4.67683
4.67682
4.6768
4.67679
4.67677
4.69158
4.69158
4.69158
4.69158
4.69157
4.69157
4.69156
4.69155
4.69154
4.69153
4.69152
4.6915
4.69149
4.69147
4.69146
4.69144
4.69143
4.69141
4.69139
4.69138
4.69136
4.69134
4.69133
4.69131
4.70615
4.70615
4.70614
4.70614
4.70613
4.70613
4.70612
4.70611
4.7061
4.70608
4.70607
4.70606
4.70604
4.70602
4.70601
4.70599
4.70597
4.70595
4.70594
4.70592
4.7059
4.70588
4.70586
4.70585
4.72071
4.72071
4.72071
4.7207
4.72069
4.72069
4.72068
4.72067
4.72066
4.72064
4.72063
4.72061
4.72059
4.72058
4.72056
4.72054
4.72052
4.7205
4.72048
4.72046
4.72044
4.72042
4.7204
4.72038
4.73527
4.73527
4.73527
4.73527
4.73526
4.73525
4.73524
4.73523
4.73522
4.7352
4.73518
4.73517
4.73515
4.73513
4.73511
4.73509
4.73507
4.73505
4.73502
4.735
4.73498
4.73496
4.73494
4.73492
4.74984
4.74984
4.74984
4.74983
4.74982
4.74981
4.7498
4.74979
4.74978
4.74976
4.74974
4.74973
4.74971
4.74968
4.74966
4.74964
4.74962
4.74959
4.74957
4.74954
4.74952
4.7495
4.74947
4.74945
4.76441
4.76441
4.7644
4.7644
4.76439
4.76438
4.76437
4.76436
4.76434
4.76432
4.7643
4.76428
4.76426
4.76424
4.76422
4.76419
4.76417
4.76414
4.76411
4.76409
4.76406
4.76403
4.76401
4.76398
4.77898
4.77898
4.77898
4.77897
4.77896
4.77895
4.77894
4.77892
4.7789
4.77889
4.77887
4.77884
4.77882
4.7788
4.77877
4.77874
4.77871
4.77869
4.77866
4.77863
4.7786
4.77857
4.77854
4.77852
4.79355
4.79355
4.79355
4.79354
4.79353
4.79352
4.79351
4.79349
4.79347
4.79345
4.79343
4.7934
4.79338
4.79335
4.79332
4.7933
4.79326
4.79323
4.7932
4.79317
4.79314
4.79311
4.79308
4.79305
4.80813
4.80813
4.80812
4.80812
4.80811
4.80809
4.80808
4.80806
4.80804
4.80802
4.80799
4.80797
4.80794
4.80791
4.80788
4.80785
4.80782
4.80778
4.80775
4.80771
4.80768
4.80765
4.80761
4.80758
4.82271
4.82271
4.8227
4.82269
4.82268
4.82267
4.82265
4.82263
4.82261
4.82259
4.82256
4.82253
4.8225
4.82247
4.82244
4.8224
4.82237
4.82233
4.82229
4.82226
4.82222
4.82218
4.82214
4.82211
4.83729
4.83729
4.83728
4.83727
4.83726
4.83725
4.83723
4.83721
4.83718
4.83716
4.83713
4.8371
4.83707
4.83703
4.837
4.83696
4.83692
4.83688
4.83684
4.8368
4.83676
4.83672
4.83668
4.83664
4.85187
4.85187
4.85187
4.85186
4.85184
4.85183
4.85181
4.85178
4.85176
4.85173
4.8517
4.85167
4.85163
4.85159
4.85156
4.85151
4.85147
4.85143
4.85139
4.85134
4.8513
4.85125
4.85121
4.85117
4.86646
4.86646
4.86645
4.86644
4.86643
4.86641
4.86639
4.86637
4.86634
4.86631
4.86627
4.86624
4.8662
4.86616
4.86612
4.86607
4.86603
4.86598
4.86593
4.86588
4.86584
4.86579
4.86574
4.86569
4.88105
4.88105
4.88104
4.88103
4.88102
4.881
4.88098
4.88095
4.88092
4.88089
4.88085
4.88081
4.88077
4.88073
4.88068
4.88063
4.88058
4.88053
4.88048
4.88043
4.88037
4.88032
4.88027
4.88022
4.89565
4.89565
4.89564
4.89563
4.89561
4.89559
4.89556
4.89554
4.8955
4.89547
4.89543
4.89539
4.89534
4.89529
4.89524
4.89519
4.89514
4.89508
4.89503
4.89497
4.89491
4.89485
4.8948
4.89474
4.91025
4.91025
4.91024
4.91022
4.91021
4.91018
4.91016
4.91013
4.91009
4.91005
4.91001
4.90997
4.90992
4.90987
4.90981
4.90976
4.9097
4.90964
4.90958
4.90951
4.90945
4.90939
4.90933
4.90927
4.92485
4.92485
4.92484
4.92483
4.92481
4.92478
4.92476
4.92472
4.92469
4.92464
4.9246
4.92455
4.9245
4.92444
4.92438
4.92432
4.92426
4.92419
4.92412
4.92406
4.92399
4.92392
4.92385
4.92379
4.93946
4.93946
4.93945
4.93944
4.93941
4.93939
4.93936
4.93932
4.93928
4.93924
4.93919
4.93913
4.93908
4.93902
4.93895
4.93889
4.93882
4.93875
4.93867
4.9386
4.93853
4.93845
4.93838
4.93831
4.95408
4.95408
4.95406
4.95405
4.95403
4.954
4.95397
4.95393
4.95388
4.95383
4.95378
4.95372
4.95366
4.9536
4.95353
4.95346
4.95338
4.9533
4.95323
4.95315
4.95307
4.95299
4.95291
4.95283
4.9687
4.9687
4.96868
4.96867
4.96864
4.96861
4.96858
4.96854
4.96849
4.96844
4.96838
4.96832
4.96825
4.96818
4.9681
4.96803
4.96795
4.96786
4.96778
4.96769
4.9676
4.96752
4.96743
4.96734
4.98333
4.98332
4.98331
4.98329
4.98327
4.98323
4.9832
4.98315
4.9831
4.98304
4.98298
4.98291
4.98284
4.98277
4.98269
4.9826
4.98251
4.98242
4.98233
4.98224
4.98214
4.98205
4.98195
4.98186
4.99796
4.99796
4.99794
4.99792
4.9979
4.99786
4.99782
4.99777
4.99772
4.99766
4.99759
4.99752
4.99744
4.99736
4.99727
4.99718
4.99708
4.99699
4.99689
4.99679
4.99668
4.99658
4.99648
4.99637
5.0126
5.0126
5.01259
5.01256
5.01253
5.0125
5.01245
5.0124
5.01234
5.01228
5.0122
5.01213
5.01204
5.01195
5.01186
5.01176
5.01166
5.01155
5.01144
5.01133
5.01122
5.01111
5.011
5.01089
5.02725
5.02725
5.02723
5.02721
5.02718
5.02714
5.02709
5.02703
5.02697
5.0269
5.02682
5.02674
5.02665
5.02655
5.02645
5.02635
5.02624
5.02612
5.026
5.02588
5.02576
5.02564
5.02552
5.0254
5.04191
5.04191
5.04189
5.04187
5.04183
5.04179
5.04174
5.04168
5.04161
5.04153
5.04145
5.04136
5.04126
5.04116
5.04105
5.04093
5.04082
5.04069
5.04057
5.04044
5.0403
5.04017
5.04004
5.03991
5.05658
5.05657
5.05656
5.05653
5.05649
5.05645
5.05639
5.05633
5.05625
5.05617
5.05608
5.05599
5.05588
5.05577
5.05565
5.05553
5.0554
5.05527
5.05513
5.05499
5.05485
5.0547
5.05456
5.05441
5.07126
5.07125
5.07123
5.0712
5.07116
5.07111
5.07106
5.07099
5.07091
5.07082
5.07073
5.07062
5.07051
5.07039
5.07026
5.07013
5.06999
5.06985
5.0697
5.06954
5.06939
5.06923
5.06908
5.06892
5.08595
5.08594
5.08592
5.08589
5.08585
5.08579
5.08573
5.08566
5.08557
5.08548
5.08538
5.08526
5.08514
5.08501
5.08488
5.08473
5.08458
5.08443
5.08427
5.0841
5.08394
5.08377
5.0836
5.08343
5.10064
5.10064
5.10061
5.10058
5.10054
5.10048
5.10041
5.10034
5.10025
5.10015
5.10003
5.09991
5.09978
5.09965
5.0995
5.09934
5.09918
5.09902
5.09884
5.09866
5.09848
5.0983
5.09811
5.09793
5.11536
5.11535
5.11532
5.11529
5.11524
5.11518
5.11511
5.11503
5.11493
5.11482
5.1147
5.11458
5.11444
5.11429
5.11413
5.11396
5.11379
5.11361
5.11342
5.11323
5.11303
5.11283
5.11263
5.11243
5.13008
5.13007
5.13005
5.13001
5.12996
5.12989
5.12982
5.12973
5.12962
5.12951
5.12938
5.12925
5.1291
5.12894
5.12877
5.12859
5.1284
5.12821
5.12801
5.1278
5.12759
5.12737
5.12715
5.12693
5.14482
5.14481
5.14478
5.14474
5.14469
5.14462
5.14454
5.14444
5.14433
5.14421
5.14408
5.14393
5.14377
5.1436
5.14342
5.14322
5.14302
5.14281
5.1426
5.14237
5.14214
5.14191
5.14167
5.14143
5.15957
5.15956
5.15953
5.15949
5.15943
5.15936
5.15927
5.15917
5.15905
5.15892
5.15878
5.15862
5.15845
5.15827
5.15807
5.15787
5.15765
5.15743
5.15719
5.15695
5.1567
5.15645
5.15619
5.15593
5.17433
5.17432
5.17429
5.17425
5.17419
5.17411
5.17402
5.17391
5.17379
5.17365
5.1735
5.17333
5.17315
5.17295
5.17274
5.17252
5.17229
5.17205
5.1718
5.17154
5.17127
5.171
5.17072
5.17044
5.18912
5.18911
5.18908
5.18903
5.18896
5.18888
5.18878
5.18867
5.18854
5.18839
5.18823
5.18805
5.18786
5.18765
5.18743
5.18719
5.18694
5.18668
5.18641
5.18613
5.18584
5.18554
5.18524
5.18494
5.20392
5.20391
5.20387
5.20382
5.20376
5.20367
5.20357
5.20344
5.2033
5.20315
5.20298
5.20279
5.20258
5.20236
5.20212
5.20187
5.2016
5.20132
5.20103
5.20073
5.20042
5.2001
5.19977
5.19944
5.21874
5.21872
5.21869
5.21864
5.21857
5.21847
5.21836
5.21824
5.21809
5.21792
5.21774
5.21754
5.21732
5.21708
5.21683
5.21656
5.21628
5.21598
5.21567
5.21534
5.21501
5.21466
5.21431
5.21395
5.23358
5.23356
5.23353
5.23347
5.23339
5.2333
5.23318
5.23305
5.23289
5.23272
5.23252
5.23231
5.23208
5.23182
5.23156
5.23127
5.23097
5.23065
5.23031
5.22997
5.2296
5.22923
5.22885
5.22846
5.24843
5.24842
5.24838
5.24832
5.24824
5.24814
5.24802
5.24788
5.24771
5.24753
5.24732
5.2471
5.24685
5.24658
5.2463
5.24599
5.24567
5.24533
5.24497
5.2446
5.24421
5.24381
5.2434
5.24298
5.26331
5.2633
5.26326
5.2632
5.26311
5.26301
5.26288
5.26273
5.26256
5.26236
5.26214
5.26191
5.26165
5.26136
5.26106
5.26074
5.26039
5.26003
5.25965
5.25925
5.25883
5.2584
5.25796
5.2575
5.27822
5.2782
5.27816
5.27809
5.27801
5.27789
5.27776
5.2776
5.27742
5.27722
5.27699
5.27674
5.27646
5.27616
5.27584
5.2755
5.27514
5.27475
5.27434
5.27392
5.27347
5.27301
5.27253
5.27203
5.29314
5.29313
5.29308
5.29301
5.29292
5.29281
5.29267
5.2925
5.29231
5.29209
5.29185
5.29159
5.2913
5.29099
5.29065
5.29029
5.2899
5.28949
5.28906
5.2886
5.28813
5.28763
5.28711
5.28658
5.30809
5.30808
5.30803
5.30796
5.30786
5.30774
5.30759
5.30742
5.30722
5.307
5.30675
5.30647
5.30617
5.30584
5.30548
5.3051
5.30469
5.30426
5.3038
5.30331
5.3028
5.30227
5.30171
5.30114
5.32307
5.32305
5.323
5.32293
5.32283
5.3227
5.32255
5.32237
5.32216
5.32193
5.32166
5.32137
5.32106
5.32071
5.32034
5.31993
5.3195
5.31905
5.31856
5.31804
5.3175
5.31693
5.31634
5.31572
5.33807
5.33805
5.338
5.33793
5.33782
5.33769
5.33753
5.33735
5.33713
5.33688
5.33661
5.33631
5.33598
5.33561
5.33522
5.3348
5.33435
5.33386
5.33335
5.3328
5.33223
5.33162
5.33098
5.33032
5.3531
5.35308
5.35303
5.35295
5.35285
5.35271
5.35255
5.35235
5.35213
5.35187
5.35159
5.35127
5.35092
5.35055
5.35014
5.34969
5.34922
5.34871
5.34817
5.34759
5.34698
5.34634
5.34566
5.34495
5.36816
5.36814
5.36809
5.36801
5.3679
5.36776
5.36759
5.36738
5.36715
5.36689
5.36659
5.36627
5.36591
5.36551
5.36509
5.36462
5.36413
5.36359
5.36303
5.36242
5.36177
5.36109
5.36037
5.35961
5.38325
5.38323
5.38318
5.38309
5.38298
5.38283
5.38266
5.38245
5.38221
5.38194
5.38163
5.38129
5.38092
5.38051
5.38007
5.37959
5.37907
5.37851
5.37792
5.37728
5.3766
5.37588
5.37512
5.37431
5.39837
5.39835
5.3983
5.39821
5.39809
5.39794
5.39776
5.39755
5.3973
5.39702
5.3967
5.39635
5.39597
5.39555
5.39509
5.39459
5.39405
5.39347
5.39285
5.39219
5.39148
5.39072
5.38991
5.38906
5.41352
5.4135
5.41345
5.41336
5.41324
5.41308
5.4129
5.41268
5.41242
5.41214
5.41181
5.41145
5.41106
5.41062
5.41015
5.40963
5.40907
5.40848
5.40783
5.40714
5.4064
5.4056
5.40476
5.40385
5.42871
5.42869
5.42863
5.42854
5.42842
5.42826
5.42807
5.42784
5.42758
5.42729
5.42696
5.42659
5.42618
5.42573
5.42525
5.42472
5.42414
5.42352
5.42286
5.42214
5.42137
5.42054
5.41966
5.41871
5.44392
5.4439
5.44384
5.44375
5.44363
5.44347
5.44327
5.44304
5.44278
5.44248
5.44214
5.44176
5.44134
5.44089
5.44039
5.43984
5.43926
5.43862
5.43793
5.43719
5.4364
5.43554
5.43462
5.43364
5.45917
5.45916
5.45909
5.459
5.45888
5.45871
5.45851
5.45828
5.45801
5.4577
5.45736
5.45697
5.45655
5.45608
5.45557
5.45502
5.45442
5.45377
5.45306
5.4523
5.45149
5.45061
5.44966
5.44863
5.47446
5.47444
5.47438
5.47429
5.47416
5.47399
5.47379
5.47356
5.47328
5.47297
5.47262
5.47223
5.4718
5.47132
5.4708
5.47024
5.46963
5.46896
5.46825
5.46747
5.46664
5.46574
5.46476
5.46371
5.48978
5.48976
5.4897
5.48961
5.48947
5.48931
5.48911
5.48887
5.48859
5.48827
5.48792
5.48752
5.48709
5.48661
5.48608
5.48551
5.48489
5.48422
5.48349
5.48271
5.48186
5.48094
5.47995
5.47888
5.50514
5.50512
5.50506
5.50496
5.50483
5.50466
5.50446
5.50422
5.50394
5.50362
5.50326
5.50286
5.50242
5.50194
5.50141
5.50083
5.50021
5.49953
5.49879
5.498
5.49715
5.49622
5.49522
5.49414
5.52053
5.52051
5.52045
5.52035
5.52022
5.52005
5.51985
5.5196
5.51932
5.519
5.51864
5.51824
5.5178
5.51731
5.51678
5.5162
5.51557
5.51489
5.51416
5.51336
5.5125
5.51158
5.51057
5.50949
5.53596
5.53594
5.53587
5.53578
5.53565
5.53548
5.53527
5.53503
5.53475
5.53443
5.53406
5.53366
5.53322
5.53273
5.5322
5.53162
5.53099
5.53031
5.52958
5.52879
5.52793
5.52701
5.52601
5.52494
5.5238
5.50835
5.493
5.47775
5.46261
5.44756
5.4326
5.41773
5.40292
5.38817
5.37348
5.35883
5.34422
5.32965
5.31509
5.30056
5.28604
5.27154
5.25705
5.24256
5.22807
5.21359
5.19912
5.18464
5.17016
5.15568
5.1412
5.12672
5.11224
5.09775
5.08326
5.06877
5.05428
5.03978
5.02528
5.01078
4.99628
4.98177
4.96726
4.95275
4.93824
4.92372
4.90921
4.89469
4.88017
4.86565
4.85112
4.8366
4.82207
4.80755
4.79302
4.77849
4.76396
4.74943
4.7349
4.72036
4.70583
4.6913
4.67676
4.66222
4.64769
4.63315
4.61861
4.60407
4.58953
4.575
4.56046
4.54592
4.53138
4.51683
5.52261
5.50714
5.4918
5.47657
5.46145
5.44644
5.43153
5.41671
5.40195
5.38727
5.37263
5.35804
5.34349
5.32897
5.31447
5.29998
5.28551
5.27105
5.2566
5.24215
5.2277
5.21325
5.1988
5.18435
5.16989
5.15544
5.14098
5.12652
5.11205
5.09758
5.0831
5.06863
5.05414
5.03966
5.02517
5.01068
4.99618
4.98168
4.96718
4.95268
4.93817
4.92366
4.90915
4.89464
4.88012
4.86561
4.85109
4.83657
4.82204
4.80752
4.79299
4.77847
4.76394
4.74941
4.73488
4.72035
4.70581
4.69128
4.67675
4.66221
4.64768
4.63314
4.6186
4.60407
4.58953
4.57499
4.56045
4.54591
4.53137
4.51683
5.52132
5.50584
5.4905
5.47529
5.4602
5.44524
5.43038
5.41562
5.40093
5.38631
5.37175
5.35722
5.34273
5.32827
5.31383
5.2994
5.28497
5.27056
5.25615
5.24173
5.22732
5.2129
5.19848
5.18406
5.16963
5.1552
5.14076
5.12631
5.11186
5.09741
5.08295
5.06848
5.05401
5.03954
5.02506
5.01058
4.99609
4.9816
4.96711
4.95261
4.93811
4.9236
4.9091
4.89459
4.88008
4.86556
4.85105
4.83653
4.82201
4.80749
4.79297
4.77844
4.76392
4.74939
4.73486
4.72033
4.7058
4.69127
4.67674
4.6622
4.64767
4.63313
4.6186
4.60406
4.58952
4.57498
4.56045
4.54591
4.53137
4.51683
5.51991
5.50442
5.48908
5.47389
5.45885
5.44394
5.42915
5.41446
5.39985
5.38531
5.37082
5.35637
5.34195
5.32756
5.31317
5.2988
5.28443
5.27006
5.25569
5.24132
5.22694
5.21256
5.19817
5.18378
5.16937
5.15496
5.14054
5.12612
5.11168
5.09724
5.0828
5.06835
5.05389
5.03943
5.02496
5.01048
4.996
4.98152
4.96703
4.95254
4.93805
4.92355
4.90905
4.89454
4.88004
4.86553
4.85101
4.8365
4.82198
4.80746
4.79294
4.77842
4.7639
4.74937
4.73484
4.72032
4.70579
4.69126
4.67672
4.66219
4.64766
4.63312
4.61859
4.60405
4.58952
4.57498
4.56044
4.5459
4.53136
4.51682
5.51838
5.50286
5.48752
5.47237
5.45738
5.44254
5.42784
5.41323
5.39872
5.38426
5.36986
5.35549
5.34115
5.32683
5.31251
5.2982
5.28389
5.26957
5.25524
5.24091
5.22657
5.21223
5.19787
5.1835
5.16912
5.15473
5.14033
5.12593
5.11151
5.09709
5.08265
5.06821
5.05377
5.03932
5.02486
5.01039
4.99592
4.98144
4.96696
4.95248
4.93799
4.9235
4.909
4.8945
4.88
4.86549
4.85098
4.83647
4.82196
4.80744
4.79292
4.7784
4.76388
4.74935
4.73483
4.7203
4.70577
4.69125
4.67671
4.66218
4.64765
4.63312
4.61858
4.60405
4.58951
4.57497
4.56044
4.5459
4.53136
4.51682
5.51669
5.50114
5.48581
5.4707
5.45578
5.44103
5.42643
5.41193
5.39752
5.38317
5.36887
5.35459
5.34034
5.32609
5.31185
5.2976
5.28334
5.26908
5.2548
5.24051
5.22621
5.2119
5.19757
5.18323
5.16887
5.15451
5.14013
5.12574
5.11134
5.09693
5.08252
5.06809
5.05365
5.03921
5.02476
5.0103
4.99584
4.98137
4.9669
4.95242
4.93794
4.92345
4.90895
4.89446
4.87996
4.86546
4.85095
4.83644
4.82193
4.80742
4.7929
4.77838
4.76386
4.74934
4.73482
4.72029
4.70576
4.69124
4.67671
4.66218
4.64764
4.63311
4.61858
4.60404
4.58951
4.57497
4.56043
4.5459
4.53136
4.51682
5.51481
5.49922
5.48391
5.46886
5.45403
5.4394
5.42491
5.41055
5.39626
5.38203
5.36784
5.35367
5.33951
5.32535
5.31118
5.297
5.28281
5.2686
5.25437
5.24012
5.22586
5.21158
5.19728
5.18297
5.16864
5.1543
5.13994
5.12557
5.11119
5.09679
5.08239
5.06797
5.05355
5.03911
5.02467
5.01022
4.99577
4.98131
4.96684
4.95236
4.93788
4.9234
4.90891
4.89442
4.87992
4.86542
4.85092
4.83642
4.82191
4.80739
4.79288
4.77836
4.76385
4.74933
4.7348
4.72028
4.70575
4.69123
4.6767
4.66217
4.64764
4.63311
4.61857
4.60404
4.5895
4.57497
4.56043
4.54589
4.53136
4.51682
5.51271
5.49708
5.48179
5.46682
5.45212
5.43763
5.4233
5.40909
5.39495
5.38087
5.3668
5.35275
5.33869
5.32462
5.31053
5.29642
5.28229
5.26813
5.25395
5.23975
5.22553
5.21128
5.19701
5.18273
5.16842
5.1541
5.13976
5.12541
5.11104
5.09666
5.08226
5.06786
5.05345
5.03902
5.02459
5.01015
4.9957
4.98124
4.96678
4.95231
4.93784
4.92336
4.90888
4.89439
4.87989
4.8654
4.8509
4.83639
4.82189
4.80738
4.79286
4.77835
4.76383
4.74931
4.73479
4.72027
4.70574
4.69122
4.67669
4.66216
4.64763
4.6331
4.61857
4.60403
4.5895
4.57497
4.56043
4.54589
4.53135
4.51682
5.51031
5.49464
5.47939
5.46454
5.45001
5.43571
5.42158
5.40756
5.3936
5.37967
5.36575
5.35182
5.33787
5.3239
5.30989
5.29586
5.28179
5.26769
5.25356
5.2394
5.22521
5.211
5.19676
5.1825
5.16822
5.15391
5.13959
5.12526
5.1109
5.09653
5.08215
5.06776
5.05336
5.03894
5.02452
5.01008
4.99564
4.98119
4.96673
4.95227
4.9378
4.92332
4.90884
4.89436
4.87987
4.86537
4.85087
4.83637
4.82187
4.80736
4.79285
4.77834
4.76382
4.7493
4.73478
4.72026
4.70574
4.69121
4.67669
4.66216
4.64763
4.6331
4.61856
4.60403
4.5895
4.57496
4.56043
4.54589
4.53135
4.51682
5.50753
5.49183
5.47665
5.46199
5.44769
5.43365
5.41977
5.40597
5.39222
5.37847
5.36471
5.35091
5.33708
5.3232
5.30929
5.29532
5.28132
5.26727
5.25319
5.23907
5.22492
5.21074
5.19653
5.18229
5.16803
5.15374
5.13944
5.12512
5.11078
5.09642
5.08205
5.06767
5.05327
5.03887
5.02445
5.01002
4.99558
4.98114
4.96669
4.95223
4.93776
4.92329
4.90881
4.89433
4.87984
4.86535
4.85085
4.83635
4.82185
4.80735
4.79284
4.77832
4.76381
4.74929
4.73477
4.72025
4.70573
4.69121
4.67668
4.66215
4.64762
4.63309
4.61856
4.60403
4.5895
4.57496
4.56043
4.54589
4.53135
4.51682
5.5042
5.48852
5.47347
5.45911
5.44514
5.43144
5.41786
5.40435
5.39083
5.37728
5.36369
5.35004
5.33632
5.32255
5.30872
5.29483
5.28088
5.26689
5.25285
5.23877
5.22465
5.2105
5.19632
5.1821
5.16786
5.15359
5.13931
5.125
5.11067
5.09633
5.08197
5.06759
5.0532
5.0388
5.02439
5.00997
4.99554
4.9811
4.96665
4.95219
4.93773
4.92326
4.90879
4.89431
4.87982
4.86533
4.85084
4.83634
4.82184
4.80733
4.79283
4.77832
4.7638
4.74929
4.73477
4.72025
4.70573
4.6912
4.67668
4.66215
4.64762
4.63309
4.61856
4.60403
4.5895
4.57496
4.56043
4.54589
4.53135
4.51682
5.50005
5.48457
5.46974
5.45586
5.44236
5.42909
5.4159
5.40271
5.38946
5.37613
5.36272
5.34921
5.33562
5.32195
5.3082
5.29437
5.28049
5.26655
5.25255
5.23851
5.22442
5.21029
5.19613
5.18194
5.16771
5.15346
5.13919
5.12489
5.11058
5.09624
5.08189
5.06752
5.05314
5.03875
5.02434
5.00992
4.9955
4.98106
4.96662
4.95216
4.9377
4.92324
4.90877
4.89429
4.87981
4.86532
4.85083
4.83633
4.82183
4.80733
4.79282
4.77831
4.7638
4.74928
4.73476
4.72025
4.70572
4.6912
4.67668
4.66215
4.64762
4.63309
4.61856
4.60403
4.5895
4.57496
4.56043
4.54589
4.53136
4.51682
5.49459
5.47975
5.46532
5.4522
5.43935
5.42666
5.41393
5.40111
5.38815
5.37506
5.36182
5.34847
5.33499
5.32141
5.30774
5.29398
5.28015
5.26625
5.25229
5.23828
5.22422
5.21012
5.19598
5.1818
5.16759
5.15336
5.13909
5.12481
5.1105
5.09617
5.08183
5.06747
5.05309
5.0387
5.0243
5.00989
4.99547
4.98103
4.96659
4.95214
4.93768
4.92322
4.90875
4.89427
4.87979
4.86531
4.85082
4.83632
4.82182
4.80732
4.79281
4.77831
4.76379
4.74928
4.73476
4.72024
4.70572
4.6912
4.67668
4.66215
4.64762
4.63309
4.61856
4.60403
4.5895
4.57496
4.56043
4.54589
4.53136
4.51682
5.48605
5.47333
5.45986
5.44808
5.43617
5.42422
5.41204
5.39962
5.38697
5.3741
5.36104
5.34782
5.33445
5.32096
5.30736
5.29365
5.27987
5.26601
5.25208
5.2381
5.22406
5.20998
5.19585
5.18169
5.1675
5.15327
5.13902
5.12474
5.11044
5.09612
5.08178
5.06743
5.05306
5.03867
5.02427
5.00986
4.99544
4.98101
4.96657
4.95213
4.93767
4.92321
4.90874
4.89427
4.87979
4.8653
4.85081
4.83632
4.82182
4.80732
4.79281
4.7783
4.76379
4.74928
4.73476
4.72024
4.70572
4.6912
4.67668
4.66215
4.64762
4.63309
4.61856
4.60403
4.5895
4.57497
4.56043
4.5459
4.53136
4.51682
5.47651
5.4665
5.45411
5.44395
5.4331
5.42196
5.41034
5.39833
5.38597
5.37331
5.36041
5.34731
5.33403
5.32061
5.30706
5.2934
5.27965
5.26582
5.25192
5.23796
5.22394
5.20987
5.19576
5.18161
5.16743
5.15321
5.13896
5.12469
5.1104
5.09608
5.08175
5.0674
5.05303
5.03865
5.02425
5.00985
4.99543
4.981
4.96656
4.95212
4.93766
4.9232
4.90874
4.89426
4.87978
4.8653
4.85081
4.83632
4.82182
4.80732
4.79281
4.7783
4.76379
4.74928
4.73476
4.72025
4.70573
4.6912
4.67668
4.66215
4.64763
4.6331
4.61857
4.60404
4.5895
4.57497
4.56043
4.5459
4.53136
4.51683
5.44287
5.45091
5.44517
5.439
5.42999
5.41993
5.40893
5.39731
5.3852
5.37272
5.35995
5.34694
5.33373
5.32036
5.30685
5.29323
5.27951
5.2657
5.25182
5.23787
5.22387
5.20981
5.19571
5.18156
5.16738
5.15317
5.13893
5.12467
5.11038
5.09607
5.08173
5.06739
5.05302
5.03864
5.02425
5.00984
4.99543
4.981
4.96656
4.95212
4.93766
4.9232
4.90874
4.89426
4.87979
4.8653
4.85081
4.83632
4.82182
4.80732
4.79282
4.77831
4.7638
4.74929
4.73477
4.72025
4.70573
4.69121
4.67668
4.66216
4.64763
4.6331
4.61857
4.60404
4.58951
4.57497
4.56044
4.5459
4.53137
4.51683
5.43675
5.4464
5.44178
5.43675
5.42843
5.41886
5.40818
5.39677
5.3848
5.37242
5.35972
5.34676
5.33359
5.32024
5.30676
5.29316
5.27945
5.26565
5.25178
5.23784
5.22384
5.20978
5.19569
5.18155
5.16737
5.15316
5.13893
5.12466
5.11037
5.09606
5.08173
5.06739
5.05302
5.03864
5.02425
5.00985
4.99543
4.981
4.96657
4.95212
4.93767
4.92321
4.90874
4.89427
4.87979
4.86531
4.85082
4.83633
4.82183
4.80733
4.79282
4.77832
4.7638
4.74929
4.73478
4.72026
4.70574
4.69121
4.67669
4.66216
4.64764
4.63311
4.61858
4.60405
4.58951
4.57498
4.56044
4.54591
4.53137
4.51683
5.4368
5.44645
5.44183
5.43679
5.42847
5.41889
5.40821
5.3968
5.38483
5.37245
5.35975
5.34678
5.33361
5.32027
5.30679
5.29318
5.27947
5.26567
5.2518
5.23786
5.22386
5.20981
5.19571
5.18157
5.16739
5.15318
5.13895
5.12468
5.11039
5.09608
5.08175
5.0674
5.05304
5.03866
5.02427
5.00986
4.99544
4.98102
4.96658
4.95214
4.93768
4.92322
4.90876
4.89428
4.8798
4.86532
4.85083
4.83634
4.82184
4.80734
4.79283
4.77832
4.76381
4.7493
4.73478
4.72027
4.70574
4.69122
4.6767
4.66217
4.64764
4.63311
4.61858
4.60405
4.58952
4.57498
4.56045
4.54591
4.53138
4.51684
5.44297
5.45103
5.44528
5.43911
5.4301
5.42003
5.40903
5.3974
5.38529
5.37281
5.36004
5.34702
5.33381
5.32044
5.30693
5.29331
5.27958
5.26577
5.25189
5.23794
5.22393
5.20987
5.19577
5.18163
5.16745
5.15323
5.13899
5.12472
5.11043
5.09612
5.08179
5.06744
5.05307
5.03869
5.02429
5.00989
4.99547
4.98104
4.9666
4.95216
4.9377
4.92324
4.90877
4.8943
4.87982
4.86534
4.85085
4.83635
4.82185
4.80735
4.79285
4.77834
4.76383
4.74931
4.73479
4.72028
4.70575
4.69123
4.67671
4.66218
4.64765
4.63312
4.61859
4.60406
4.58953
4.57499
4.56046
4.54592
4.53138
4.51684
5.47676
5.46674
5.45432
5.44414
5.43328
5.42213
5.41051
5.39849
5.38612
5.37346
5.36055
5.34745
5.33416
5.32074
5.30719
5.29353
5.27978
5.26594
5.25204
5.23807
5.22405
5.20998
5.19587
5.18171
5.16753
5.15331
5.13906
5.12479
5.11049
5.09617
5.08184
5.06748
5.05311
5.03873
5.02433
5.00992
4.9955
4.98107
4.96663
4.95218
4.93773
4.92327
4.9088
4.89432
4.87984
4.86535
4.85086
4.83637
4.82187
4.80737
4.79286
4.77835
4.76384
4.74932
4.73481
4.72029
4.70577
4.69124
4.67672
4.66219
4.64766
4.63313
4.6186
4.60407
4.58953
4.575
4.56046
4.54593
4.53139
4.51685
5.48636
5.47362
5.46013
5.44834
5.43642
5.42445
5.41226
5.39983
5.38717
5.3743
5.36124
5.34801
5.33464
5.32114
5.30753
5.29383
5.28004
5.26617
5.25224
5.23825
5.22421
5.21013
5.196
5.18183
5.16763
5.15341
5.13915
5.12487
5.11057
5.09624
5.0819
5.06754
5.05317
5.03878
5.02438
5.00997
4.99554
4.98111
4.96667
4.95222
4.93776
4.9233
4.90883
4.89435
4.87987
4.86538
4.85089
4.83639
4.82189
4.80739
4.79288
4.77837
4.76386
4.74934
4.73482
4.7203
4.70578
4.69125
4.67673
4.6622
4.64767
4.63314
4.61861
4.60408
4.58954
4.57501
4.56047
4.54593
4.5314
4.51686
5.49497
5.48011
5.46566
5.45252
5.43966
5.42695
5.41422
5.40138
5.38842
5.37531
5.36207
5.34871
5.33523
5.32164
5.30796
5.2942
5.28036
5.26646
5.2525
5.23848
5.22442
5.21031
5.19616
5.18198
5.16777
5.15353
5.13926
5.12497
5.11066
5.09633
5.08198
5.06762
5.05324
5.03884
5.02444
5.01002
4.9956
4.98116
4.96671
4.95226
4.9378
4.92333
4.90886
4.89438
4.8799
4.86541
4.85091
4.83642
4.82191
4.80741
4.7929
4.77839
4.76387
4.74936
4.73484
4.72032
4.70579
4.69127
4.67674
4.66221
4.64768
4.63315
4.61862
4.60409
4.58955
4.57502
4.56048
4.54594
4.5314
4.51687
5.50049
5.485
5.47014
5.45624
5.44273
5.42945
5.41625
5.40304
5.38978
5.37644
5.36302
5.34951
5.33591
5.32223
5.30847
5.29464
5.28075
5.2668
5.2528
5.23875
5.22466
5.21053
5.19636
5.18216
5.16793
5.15367
5.1394
5.12509
5.11077
5.09643
5.08208
5.0677
5.05332
5.03892
5.02451
5.01009
4.99565
4.98121
4.96677
4.95231
4.93785
4.92338
4.9089
4.89442
4.87993
4.86544
4.85094
4.83644
4.82194
4.80743
4.79292
4.77841
4.7639
4.74938
4.73486
4.72033
4.70581
4.69128
4.67676
4.66223
4.6477
4.63316
4.61863
4.6041
4.58956
4.57503
4.56049
4.54595
4.53141
4.51687
5.5047
5.48901
5.47393
5.45955
5.44557
5.43185
5.41826
5.40473
5.3912
5.37765
5.36404
5.35038
5.33666
5.32288
5.30904
5.29514
5.28119
5.26719
5.25314
5.23906
5.22493
5.21077
5.19658
5.18236
5.16811
5.15384
5.13955
5.12523
5.1109
5.09655
5.08218
5.0678
5.05341
5.039
5.02459
5.01016
4.99572
4.98128
4.96682
4.95236
4.9379
4.92342
4.90894
4.89446
4.87997
4.86548
4.85098
4.83648
4.82197
4.80746
4.79295
4.77844
4.76392
4.7494
4.73488
4.72035
4.70583
4.6913
4.67677
4.66224
4.64771
4.63318
4.61864
4.60411
4.58957
4.57504
4.5605
4.54596
4.53142
4.51688
5.50809
5.49237
5.47716
5.46249
5.44818
5.43412
5.42022
5.40642
5.39265
5.37889
5.36512
5.35131
5.33747
5.32358
5.30966
5.29568
5.28167
5.26762
5.25353
5.2394
5.22524
5.21105
5.19683
5.18259
5.16832
5.15403
5.13972
5.12539
5.11104
5.09668
5.0823
5.06791
5.05351
5.0391
5.02467
5.01024
4.9958
4.98135
4.96689
4.95242
4.93795
4.92347
4.90899
4.8945
4.88001
4.86551
4.85101
4.83651
4.822
4.80749
4.79298
4.77846
4.76394
4.74942
4.7349
4.72037
4.70585
4.69132
4.67679
4.66226
4.64773
4.63319
4.61866
4.60412
4.58959
4.57505
4.56051
4.54597
4.53143
4.51689
5.51093
5.49523
5.47996
5.4651
5.45055
5.43624
5.42209
5.40806
5.39409
5.38015
5.36621
5.35227
5.33831
5.32433
5.31031
5.29627
5.28219
5.26808
5.25394
5.23977
5.22557
5.21135
5.19711
5.18284
5.16855
5.15424
5.13991
5.12556
5.1112
5.09683
5.08244
5.06804
5.05363
5.0392
5.02477
5.01033
4.99588
4.98142
4.96696
4.95249
4.93801
4.92353
4.90905
4.89455
4.88006
4.86556
4.85105
4.83655
4.82204
4.80752
4.79301
4.77849
4.76397
4.74945
4.73492
4.7204
4.70587
4.69134
4.67681
4.66228
4.64774
4.63321
4.61867
4.60414
4.5896
4.57506
4.56052
4.54598
4.53144
4.5169
5.51338
5.49773
5.48242
5.46743
5.45271
5.43821
5.42387
5.40964
5.39549
5.38139
5.36731
5.35325
5.33918
5.32509
5.31099
5.29687
5.28273
5.26857
5.25438
5.24017
5.22593
5.21168
5.1974
5.1831
5.16879
5.15446
5.14011
5.12575
5.11137
5.09698
5.08258
5.06817
5.05375
5.03932
5.02487
5.01043
4.99597
4.98151
4.96704
4.95256
4.93808
4.92359
4.9091
4.89461
4.88011
4.8656
4.8511
4.83659
4.82208
4.80756
4.79304
4.77852
4.764
4.74948
4.73495
4.72042
4.70589
4.69136
4.67683
4.6623
4.64776
4.63323
4.61869
4.60415
4.58961
4.57507
4.56053
4.54599
4.53145
4.51691
5.51553
5.49993
5.48459
5.46952
5.45468
5.44003
5.42553
5.41115
5.39685
5.38261
5.36841
5.35422
5.34005
5.32588
5.3117
5.2975
5.2833
5.26908
5.25484
5.24058
5.22631
5.21202
5.19771
5.18339
5.16905
5.15469
5.14033
5.12595
5.11155
5.09715
5.08274
5.06831
5.05388
5.03944
5.02499
5.01053
4.99607
4.9816
4.96712
4.95264
4.93815
4.92366
4.90916
4.89466
4.88016
4.86565
4.85114
4.83663
4.82212
4.8076
4.79308
4.77855
4.76403
4.7495
4.73498
4.72045
4.70592
4.69138
4.67685
4.66232
4.64778
4.63324
4.61871
4.60417
4.58963
4.57509
4.56055
4.54601
4.53146
4.51692
5.51746
5.50189
5.48655
5.47142
5.45648
5.44172
5.4271
5.41258
5.39816
5.3838
5.36948
5.35519
5.34092
5.32666
5.31241
5.29814
5.28388
5.2696
5.25531
5.24101
5.2267
5.21237
5.19803
5.18368
5.16932
5.15494
5.14055
5.12615
5.11175
5.09733
5.0829
5.06846
5.05402
5.03956
5.0251
5.01064
4.99617
4.98169
4.96721
4.95272
4.93823
4.92373
4.90923
4.89472
4.88022
4.86571
4.85119
4.83668
4.82216
4.80764
4.79311
4.77859
4.76406