/*--------------------------------*- C++ -*----------------------------------*\
| =========                 |                                                 |
| \\      /  F ield         | foam-extend: Open Source CFD                    |
|  \\    /   O peration     | Version:  3.0                                   |
|   \\  /    A nd           | Web:         http://www.extend-project.de       |
|    \\/     M anipulation  |                                                 |
\*---------------------------------------------------------------------------*/
FoamFile
{
    version     2.0;
    format      ascii;
    class       surfaceScalarField;
    location    "0.005";
    object      phi;
}
// * * * * * * * * * * * * * * * * * * * * * * * * * * * * * * * * * * * * * //

dimensions      [0 3 -1 0 0 0 0];

internalField   nonuniform List<scalar> 
20726
(
5.02698e-11
-1.01235e-06
1.0123e-06
1.06267e-10
-1.10272e-06
1.10266e-06
1.61504e-10
-1.10617e-06
1.10612e-06
2.1514e-10
-1.10627e-06
1.10622e-06
2.66609e-10
-1.10625e-06
1.1062e-06
3.15376e-10
-1.10622e-06
1.10617e-06
3.6092e-10
-1.10618e-06
1.10613e-06
4.02741e-10
-1.10614e-06
1.10609e-06
4.40362e-10
-1.10609e-06
1.10605e-06
4.73333e-10
-1.10603e-06
1.106e-06
5.0123e-10
-1.10597e-06
1.10595e-06
5.23664e-10
-1.10591e-06
1.10589e-06
5.40278e-10
-1.10584e-06
1.10583e-06
5.50754e-10
-1.10577e-06
1.10576e-06
5.54809e-10
-1.1057e-06
1.1057e-06
5.52207e-10
-1.10562e-06
1.10563e-06
5.42752e-10
-1.10555e-06
1.10556e-06
5.26295e-10
-1.10547e-06
1.10549e-06
5.02733e-10
-1.10539e-06
1.10541e-06
4.72019e-10
-1.10531e-06
1.10534e-06
4.34164e-10
-1.10523e-06
1.10527e-06
3.89235e-10
-1.10516e-06
1.1052e-06
3.37553e-10
-1.10508e-06
1.10513e-06
-1.10501e-06
2.7888e-10
1.10507e-06
5.61923e-11
-1.01241e-06
1.1885e-10
-1.10278e-06
1.80697e-10
-1.10623e-06
2.40809e-10
-1.10633e-06
2.98574e-10
-1.10631e-06
3.5341e-10
-1.10627e-06
4.04752e-10
-1.10623e-06
4.52059e-10
-1.10618e-06
4.94813e-10
-1.10613e-06
5.32523e-10
-1.10607e-06
5.6473e-10
-1.10601e-06
5.9101e-10
-1.10594e-06
6.10974e-10
-1.10586e-06
6.24275e-10
-1.10579e-06
6.30606e-10
-1.10571e-06
6.29706e-10
-1.10562e-06
6.2136e-10
-1.10554e-06
6.05405e-10
-1.10545e-06
5.81726e-10
-1.10537e-06
5.50265e-10
-1.10528e-06
5.11023e-10
-1.10519e-06
4.64053e-10
-1.10511e-06
4.09561e-10
-1.10503e-06
-1.10495e-06
3.47467e-10
6.26527e-11
-1.01247e-06
1.32583e-10
-1.10285e-06
2.0165e-10
-1.1063e-06
2.68839e-10
-1.1064e-06
3.33484e-10
-1.10637e-06
3.94955e-10
-1.10633e-06
4.52642e-10
-1.10629e-06
5.05956e-10
-1.10624e-06
5.54334e-10
-1.10618e-06
5.97245e-10
-1.10611e-06
6.34189e-10
-1.10604e-06
6.64705e-10
-1.10597e-06
6.88369e-10
-1.10589e-06
7.04803e-10
-1.1058e-06
7.13671e-10
-1.10571e-06
7.14688e-10
-1.10562e-06
7.07618e-10
-1.10553e-06
6.92279e-10
-1.10544e-06
6.68542e-10
-1.10534e-06
6.36339e-10
-1.10525e-06
5.95657e-10
-1.10515e-06
5.46537e-10
-1.10506e-06
4.89101e-10
-1.10497e-06
-1.10488e-06
4.23407e-10
6.9697e-11
-1.01254e-06
1.47563e-10
-1.10293e-06
2.24511e-10
-1.10638e-06
2.99424e-10
-1.10647e-06
3.71583e-10
-1.10644e-06
4.40305e-10
-1.1064e-06
5.04927e-10
-1.10635e-06
5.64812e-10
-1.1063e-06
6.1935e-10
-1.10623e-06
6.67963e-10
-1.10616e-06
7.10109e-10
-1.10608e-06
7.45285e-10
-1.106e-06
7.73031e-10
-1.10591e-06
7.92933e-10
-1.10582e-06
8.04626e-10
-1.10573e-06
8.07797e-10
-1.10563e-06
8.02185e-10
-1.10553e-06
7.8759e-10
-1.10542e-06
7.63867e-10
-1.10532e-06
7.30933e-10
-1.10521e-06
6.88766e-10
-1.10511e-06
6.37402e-10
-1.10501e-06
5.76942e-10
-1.10491e-06
-1.10481e-06
5.07505e-10
7.73743e-11
-1.01262e-06
1.63894e-10
-1.10302e-06
2.49437e-10
-1.10646e-06
3.32778e-10
-1.10656e-06
4.13137e-10
-1.10652e-06
4.89775e-10
-1.10648e-06
5.61975e-10
-1.10643e-06
6.29044e-10
-1.10636e-06
6.90323e-10
-1.10629e-06
7.45182e-10
-1.10622e-06
7.93035e-10
-1.10613e-06
8.33333e-10
-1.10604e-06
8.65577e-10
-1.10595e-06
8.89315e-10
-1.10585e-06
9.04148e-10
-1.10574e-06
9.09732e-10
-1.10563e-06
9.05782e-10
-1.10552e-06
8.92075e-10
-1.10541e-06
8.6845e-10
-1.1053e-06
8.34808e-10
-1.10518e-06
7.9112e-10
-1.10507e-06
7.37417e-10
-1.10496e-06
6.738e-10
-1.10485e-06
-1.10474e-06
6.0042e-10
8.5738e-11
-1.01271e-06
1.81689e-10
-1.10311e-06
2.766e-10
-1.10656e-06
3.69128e-10
-1.10665e-06
4.58431e-10
-1.10661e-06
5.43707e-10
-1.10656e-06
6.24179e-10
-1.10651e-06
6.99098e-10
-1.10644e-06
7.67747e-10
-1.10636e-06
8.29445e-10
-1.10628e-06
8.83554e-10
-1.10619e-06
9.29478e-10
-1.10609e-06
9.66674e-10
-1.10598e-06
9.94648e-10
-1.10587e-06
1.01296e-09
-1.10576e-06
1.02125e-09
-1.10564e-06
1.01919e-09
-1.10552e-06
1.00653e-09
-1.1054e-06
9.83098e-10
-1.10527e-06
9.48782e-10
-1.10515e-06
9.03539e-10
-1.10502e-06
8.47401e-10
-1.1049e-06
7.80469e-10
-1.10478e-06
-1.10466e-06
7.02915e-10
9.48444e-11
-1.0128e-06
2.01066e-10
-1.10322e-06
3.06182e-10
-1.10666e-06
4.08722e-10
-1.10675e-06
5.07772e-10
-1.10671e-06
6.02467e-10
-1.10666e-06
6.91965e-10
-1.1066e-06
7.75454e-10
-1.10652e-06
8.52158e-10
-1.10644e-06
9.21337e-10
-1.10635e-06
9.82299e-10
-1.10625e-06
1.0344e-09
-1.10614e-06
1.07704e-09
-1.10603e-06
1.10969e-09
-1.10591e-06
1.13187e-09
-1.10578e-06
1.14316e-09
-1.10565e-06
1.14324e-09
-1.10552e-06
1.13181e-09
-1.10539e-06
1.10869e-09
-1.10525e-06
1.07374e-09
-1.10511e-06
1.02691e-09
-1.10498e-06
9.68231e-10
-1.10484e-06
8.97812e-10
-1.10471e-06
-1.10458e-06
8.15834e-10
1.04754e-10
-1.0129e-06
2.22156e-10
-1.10334e-06
3.38382e-10
-1.10678e-06
4.51823e-10
-1.10686e-06
5.61493e-10
-1.10682e-06
6.66452e-10
-1.10676e-06
7.65792e-10
-1.10669e-06
8.58633e-10
-1.10661e-06
9.44132e-10
-1.10652e-06
1.02149e-09
-1.10642e-06
1.08995e-09
-1.10632e-06
1.14882e-09
-1.1062e-06
1.19745e-09
-1.10608e-06
1.23525e-09
-1.10594e-06
1.2617e-09
-1.10581e-06
1.27636e-09
-1.10567e-06
1.27885e-09
-1.10552e-06
1.26886e-09
-1.10538e-06
1.24616e-09
-1.10523e-06
1.21063e-09
-1.10508e-06
1.16219e-09
-1.10493e-06
1.10086e-09
-1.10478e-06
1.02677e-09
-1.10463e-06
-1.10449e-06
9.40099e-10
1.15532e-10
-1.01302e-06
2.45097e-10
-1.10346e-06
3.73411e-10
-1.10691e-06
4.98717e-10
-1.10699e-06
6.19947e-10
-1.10694e-06
7.36088e-10
-1.10688e-06
8.46153e-10
-1.1068e-06
9.49191e-10
-1.10672e-06
1.04429e-09
-1.10662e-06
1.13059e-09
-1.10651e-06
1.20726e-09
-1.10639e-06
1.27354e-09
-1.10627e-06
1.32874e-09
-1.10613e-06
1.37222e-09
-1.10599e-06
1.4034e-09
-1.10584e-06
1.4218e-09
-1.10569e-06
1.427e-09
-1.10553e-06
1.41867e-09
-1.10537e-06
1.39655e-09
-1.1052e-06
1.36049e-09
-1.10504e-06
1.31041e-09
-1.10488e-06
1.24633e-09
-1.10472e-06
1.16836e-09
-1.10456e-06
-1.1044e-06
1.07672e-09
1.27248e-10
-1.01315e-06
2.70038e-10
-1.10361e-06
4.11497e-10
-1.10705e-06
5.4971e-10
-1.10713e-06
6.8352e-10
-1.10708e-06
8.11831e-10
-1.10701e-06
9.33577e-10
-1.10693e-06
1.04773e-09
-1.10683e-06
1.1533e-09
-1.10672e-06
1.24935e-09
-1.10661e-06
1.335e-09
-1.10648e-06
1.40941e-09
-1.10634e-06
1.47182e-09
-1.10619e-06
1.52154e-09
-1.10604e-06
1.55795e-09
-1.10588e-06
1.5805e-09
-1.10571e-06
1.58875e-09
-1.10554e-06
1.58233e-09
-1.10536e-06
1.56095e-09
-1.10518e-06
1.52444e-09
-1.105e-06
1.4727e-09
-1.10483e-06
1.40575e-09
-1.10465e-06
1.32371e-09
-1.10447e-06
-1.10431e-06
1.22678e-09
1.39978e-10
-1.01329e-06
2.97138e-10
-1.10376e-06
4.52886e-10
-1.10721e-06
6.0513e-10
-1.10728e-06
7.5262e-10
-1.10722e-06
8.94173e-10
-1.10715e-06
1.02864e-09
-1.10706e-06
1.1549e-09
-1.10696e-06
1.27189e-09
-1.10684e-06
1.37859e-09
-1.10671e-06
1.47404e-09
-1.10657e-06
1.55733e-09
-1.10642e-06
1.62766e-09
-1.10626e-06
1.68424e-09
-1.10609e-06
1.72642e-09
-1.10592e-06
1.75359e-09
-1.10574e-06
1.76526e-09
-1.10555e-06
1.76102e-09
-1.10536e-06
1.74057e-09
-1.10516e-06
1.70369e-09
-1.10497e-06
1.65028e-09
-1.10477e-06
1.58035e-09
-1.10458e-06
1.494e-09
-1.10439e-06
-1.1042e-06
1.39148e-09
1.538e-10
-1.01344e-06
3.26571e-10
-1.10394e-06
4.97841e-10
-1.10738e-06
6.65331e-10
-1.10745e-06
8.27691e-10
-1.10739e-06
9.83643e-10
-1.10731e-06
1.13194e-09
-1.10721e-06
1.27139e-09
-1.1071e-06
1.40082e-09
-1.10697e-06
1.51913e-09
-1.10683e-06
1.62529e-09
-1.10668e-06
1.71831e-09
-1.10652e-06
1.7973e-09
-1.10634e-06
1.86143e-09
-1.10616e-06
1.90996e-09
-1.10597e-06
1.94226e-09
-1.10577e-06
1.95776e-09
-1.10556e-06
1.95602e-09
-1.10535e-06
1.93669e-09
-1.10514e-06
1.89955e-09
-1.10493e-06
1.84446e-09
-1.10472e-06
1.77143e-09
-1.10451e-06
1.68057e-09
-1.1043e-06
-1.10409e-06
1.5721e-09
1.68803e-10
-1.01361e-06
3.58519e-10
-1.10413e-06
5.46642e-10
-1.10757e-06
7.3069e-10
-1.10763e-06
9.09206e-10
-1.10757e-06
1.08081e-09
-1.10748e-06
1.24415e-09
-1.10737e-06
1.39794e-09
-1.10725e-06
1.54092e-09
-1.10711e-06
1.6719e-09
-1.10696e-06
1.78974e-09
-1.1068e-06
1.8934e-09
-1.10662e-06
1.98188e-09
-1.10643e-06
2.0543e-09
-1.10623e-06
2.10984e-09
-1.10602e-06
2.14781e-09
-1.10581e-06
2.16759e-09
-1.10558e-06
2.16869e-09
-1.10536e-06
2.15073e-09
-1.10512e-06
2.11344e-09
-1.10489e-06
2.05668e-09
-1.10466e-06
1.98044e-09
-1.10443e-06
1.88481e-09
-1.1042e-06
-1.10398e-06
1.77006e-09
1.85077e-10
-1.0138e-06
3.9318e-10
-1.10434e-06
5.99593e-10
-1.10777e-06
8.01614e-10
-1.10783e-06
9.97671e-10
-1.10776e-06
1.18628e-09
-1.10767e-06
1.36598e-09
-1.10755e-06
1.53537e-09
-1.10742e-06
1.6931e-09
-1.10727e-06
1.83787e-09
-1.10711e-06
1.96847e-09
-1.10693e-06
2.08374e-09
-1.10674e-06
2.18261e-09
-1.10653e-06
2.26412e-09
-1.10631e-06
2.32739e-09
-1.10609e-06
2.37163e-09
-1.10585e-06
2.39619e-09
-1.10561e-06
2.40052e-09
-1.10536e-06
2.38419e-09
-1.10511e-06
2.3469e-09
-1.10486e-06
2.28848e-09
-1.1046e-06
2.20891e-09
-1.10435e-06
2.10829e-09
-1.1041e-06
-1.10386e-06
1.98687e-09
2.02722e-10
-1.014e-06
4.30765e-10
-1.10456e-06
6.57015e-10
-1.108e-06
8.78536e-10
-1.10806e-06
1.09363e-09
-1.10798e-06
1.3007e-09
-1.10787e-06
1.49816e-09
-1.10775e-06
1.68452e-09
-1.10761e-06
1.85829e-09
-1.10745e-06
2.0181e-09
-1.10727e-06
2.1626e-09
-1.10707e-06
2.29056e-09
-1.10686e-06
2.40081e-09
-1.10664e-06
2.4923e-09
-1.1064e-06
2.56406e-09
-1.10616e-06
2.61525e-09
-1.1059e-06
2.64514e-09
-1.10564e-06
2.65311e-09
-1.10537e-06
2.63871e-09
-1.10509e-06
2.60159e-09
-1.10482e-06
2.54155e-09
-1.10454e-06
2.45855e-09
-1.10427e-06
2.35268e-09
-1.104e-06
-1.10373e-06
2.22419e-09
2.21844e-10
-1.01422e-06
4.71499e-10
-1.10481e-06
7.19255e-10
-1.10825e-06
9.61921e-10
-1.1083e-06
1.19767e-09
-1.10821e-06
1.42477e-09
-1.1081e-06
1.64153e-09
-1.10797e-06
1.84632e-09
-1.10781e-06
2.03755e-09
-1.10764e-06
2.21371e-09
-1.10744e-06
2.37337e-09
-1.10723e-06
2.51518e-09
-1.10701e-06
2.63787e-09
-1.10676e-06
2.7403e-09
-1.10651e-06
2.82141e-09
-1.10624e-06
2.88028e-09
-1.10596e-06
2.9161e-09
-1.10567e-06
2.92821e-09
-1.10538e-06
2.91607e-09
-1.10508e-06
2.87931e-09
-1.10478e-06
2.8177e-09
-1.10448e-06
2.73116e-09
-1.10418e-06
2.61979e-09
-1.10388e-06
-1.10359e-06
2.48383e-09
2.42554e-10
-1.01446e-06
5.15623e-10
-1.10509e-06
7.86681e-10
-1.10852e-06
1.05227e-09
-1.10856e-06
1.31041e-09
-1.10847e-06
1.55924e-09
-1.10835e-06
1.79694e-09
-1.1082e-06
2.02174e-09
-1.10804e-06
2.23195e-09
-1.10785e-06
2.42592e-09
-1.10764e-06
2.60209e-09
-1.10741e-06
2.75902e-09
-1.10716e-06
2.89531e-09
-1.1069e-06
3.00973e-09
-1.10662e-06
3.10112e-09
-1.10633e-06
3.16848e-09
-1.10603e-06
3.21091e-09
-1.10572e-06
3.22767e-09
-1.1054e-06
3.21819e-09
-1.10507e-06
3.18202e-09
-1.10475e-06
3.1189e-09
-1.10442e-06
3.02873e-09
-1.10409e-06
2.91159e-09
-1.10377e-06
-1.10345e-06
2.76774e-09
2.64973e-10
-1.01473e-06
5.63394e-10
-1.10538e-06
8.59689e-10
-1.10881e-06
1.1501e-09
-1.10885e-06
1.4325e-09
-1.10875e-06
1.7049e-09
-1.10862e-06
1.96532e-09
-1.10846e-06
2.21186e-09
-1.10828e-06
2.44268e-09
-1.10808e-06
2.65602e-09
-1.10785e-06
2.85018e-09
-1.1076e-06
3.02359e-09
-1.10734e-06
3.17476e-09
-1.10705e-06
3.30231e-09
-1.10675e-06
3.40501e-09
-1.10643e-06
3.48173e-09
-1.1061e-06
3.53151e-09
-1.10577e-06
3.55353e-09
-1.10542e-06
3.54712e-09
-1.10507e-06
3.51181e-09
-1.10471e-06
3.44728e-09
-1.10435e-06
3.35341e-09
-1.104e-06
3.23025e-09
-1.10364e-06
-1.1033e-06
3.07806e-09
2.8923e-10
-1.01502e-06
6.15085e-10
-1.10571e-06
9.38696e-10
-1.10914e-06
1.25599e-09
-1.10917e-06
1.56467e-09
-1.10906e-06
1.8626e-09
-1.10892e-06
2.14765e-09
-1.10875e-06
2.41778e-09
-1.10855e-06
2.671e-09
-1.10833e-06
2.90539e-09
-1.10809e-06
3.11914e-09
-1.10782e-06
3.31053e-09
-1.10753e-06
3.47795e-09
-1.10722e-06
3.61989e-09
-1.10689e-06
3.73501e-09
-1.10655e-06
3.82207e-09
-1.10619e-06
3.88002e-09
-1.10582e-06
3.90795e-09
-1.10545e-06
3.90512e-09
-1.10506e-06
3.87097e-09
-1.10468e-06
3.80516e-09
-1.10429e-06
3.70751e-09
-1.1039e-06
3.57807e-09
-1.10351e-06
-1.10314e-06
3.41708e-09
3.15459e-10
-1.01533e-06
6.7099e-10
-1.10607e-06
1.02415e-09
-1.10949e-06
1.37053e-09
-1.10952e-06
1.70767e-09
-1.1094e-06
2.03325e-09
-1.10924e-06
2.345e-09
-1.10906e-06
2.64072e-09
-1.10885e-06
2.91824e-09
-1.10861e-06
3.17553e-09
-1.10834e-06
3.41059e-09
-1.10805e-06
3.62158e-09
-1.10774e-06
3.80674e-09
-1.1074e-06
3.96445e-09
-1.10705e-06
4.09321e-09
-1.10668e-06
4.19169e-09
-1.10629e-06
4.25872e-09
-1.10589e-06
4.29329e-09
-1.10548e-06
4.29458e-09
-1.10506e-06
4.26197e-09
-1.10464e-06
4.19503e-09
-1.10422e-06
4.09357e-09
-1.1038e-06
3.95759e-09
-1.10338e-06
-1.10297e-06
3.78733e-09
3.43806e-10
-1.01568e-06
7.31415e-10
-1.10645e-06
1.11653e-09
-1.10988e-06
1.49436e-09
-1.1099e-06
1.86229e-09
-1.10977e-06
2.21782e-09
-1.1096e-06
2.55849e-09
-1.1094e-06
2.88194e-09
-1.10917e-06
3.18585e-09
-1.10891e-06
3.468e-09
-1.10862e-06
3.72626e-09
-1.10831e-06
3.95861e-09
-1.10797e-06
4.16315e-09
-1.10761e-06
4.33811e-09
-1.10722e-06
4.48186e-09
-1.10682e-06
4.59294e-09
-1.1064e-06
4.67005e-09
-1.10597e-06
4.71208e-09
-1.10552e-06
4.71812e-09
-1.10507e-06
4.68746e-09
-1.10461e-06
4.61961e-09
-1.10415e-06
4.51431e-09
-1.10369e-06
4.37155e-09
-1.10324e-06
-1.10279e-06
4.19154e-09
3.74424e-10
-1.01605e-06
7.9669e-10
-1.10688e-06
1.21633e-09
-1.1103e-06
1.62817e-09
-1.11031e-06
2.02939e-09
-1.11017e-06
2.41731e-09
-1.10999e-06
2.78931e-09
-1.10977e-06
3.14282e-09
-1.10953e-06
3.47535e-09
-1.10925e-06
3.78451e-09
-1.10893e-06
4.06799e-09
-1.10859e-06
4.32362e-09
-1.10823e-06
4.54931e-09
-1.10783e-06
4.74315e-09
-1.10742e-06
4.90336e-09
-1.10698e-06
5.02833e-09
-1.10653e-06
5.11664e-09
-1.10606e-06
5.16706e-09
-1.10557e-06
5.17856e-09
-1.10508e-06
5.15034e-09
-1.10458e-06
5.08183e-09
-1.10408e-06
4.97271e-09
-1.10358e-06
4.82293e-09
-1.10309e-06
-1.1026e-06
4.63268e-09
4.07476e-10
-1.01646e-06
8.67161e-10
-1.10734e-06
1.32409e-09
-1.11075e-06
1.77267e-09
-1.11076e-06
2.20988e-09
-1.1106e-06
2.63284e-09
-1.11041e-06
3.03872e-09
-1.11018e-06
3.42479e-09
-1.10991e-06
3.78836e-09
-1.10961e-06
4.12684e-09
-1.10927e-06
4.43775e-09
-1.1089e-06
4.71872e-09
-1.10851e-06
4.9675e-09
-1.10808e-06
5.18201e-09
-1.10763e-06
5.36029e-09
-1.10716e-06
5.50059e-09
-1.10667e-06
5.60134e-09
-1.10616e-06
5.66117e-09
-1.10563e-06
5.67893e-09
-1.1051e-06
5.65371e-09
-1.10456e-06
5.58486e-09
-1.10401e-06
5.47199e-09
-1.10347e-06
5.31497e-09
-1.10293e-06
-1.1024e-06
5.114e-09
4.43132e-10
-1.0169e-06
9.43197e-10
-1.10784e-06
1.44037e-09
-1.11125e-06
1.92862e-09
-1.11124e-06
2.4047e-09
-1.11108e-06
2.86553e-09
-1.11087e-06
3.30808e-09
-1.11062e-06
3.7294e-09
-1.11033e-06
4.12661e-09
-1.11001e-06
4.49691e-09
-1.10964e-06
4.83763e-09
-1.10925e-06
5.14619e-09
-1.10882e-06
5.42018e-09
-1.10836e-06
5.65729e-09
-1.10787e-06
5.85542e-09
-1.10736e-06
6.01263e-09
-1.10682e-06
6.12718e-09
-1.10627e-06
6.19757e-09
-1.1057e-06
6.2225e-09
-1.10512e-06
6.20094e-09
-1.10454e-06
6.13214e-09
-1.10395e-06
6.01562e-09
-1.10335e-06
5.85119e-09
-1.10276e-06
-1.10218e-06
5.639e-09
4.81573e-10
-1.01738e-06
1.02518e-09
-1.10838e-06
1.56577e-09
-1.11179e-06
2.09683e-09
-1.11178e-06
2.61488e-09
-1.1116e-06
3.11661e-09
-1.11137e-06
3.5988e-09
-1.1111e-06
4.05827e-09
-1.11079e-06
4.49192e-09
-1.11044e-06
4.89674e-09
-1.11005e-06
5.26985e-09
-1.10962e-06
5.60846e-09
-1.10915e-06
5.90993e-09
-1.10866e-06
6.17178e-09
-1.10813e-06
6.3917e-09
-1.10758e-06
6.56756e-09
-1.107e-06
6.69744e-09
-1.1064e-06
6.77967e-09
-1.10579e-06
6.8128e-09
-1.10516e-06
6.79567e-09
-1.10452e-06
6.72739e-09
-1.10388e-06
6.60738e-09
-1.10323e-06
6.4354e-09
-1.10259e-06
-1.10196e-06
6.21153e-09
5.22988e-10
-1.01791e-06
1.11353e-09
-1.10897e-06
1.70092e-09
-1.11238e-06
2.27813e-09
-1.11235e-06
2.84146e-09
-1.11216e-06
3.38737e-09
-1.11192e-06
3.91239e-09
-1.11163e-06
4.41312e-09
-1.11129e-06
4.88623e-09
-1.11091e-06
5.32849e-09
-1.11049e-06
5.73678e-09
-1.11003e-06
6.10808e-09
-1.10953e-06
6.43954e-09
-1.10899e-06
6.72846e-09
-1.10842e-06
6.97229e-09
-1.10782e-06
7.16872e-09
-1.1072e-06
7.31562e-09
-1.10655e-06
7.41113e-09
-1.10588e-06
7.45364e-09
-1.1052e-06
7.44181e-09
-1.10451e-06
7.37462e-09
-1.10381e-06
7.25139e-09
-1.10311e-06
7.07176e-09
-1.10241e-06
-1.10172e-06
6.83575e-09
5.67578e-10
-1.01847e-06
1.20866e-09
-1.10961e-06
1.84646e-09
-1.11301e-06
2.47343e-09
-1.11298e-06
3.08558e-09
-1.11277e-06
3.67915e-09
-1.11251e-06
4.25042e-09
-1.1122e-06
4.79576e-09
-1.11184e-06
5.31159e-09
-1.11143e-06
5.79443e-09
-1.11097e-06
6.24091e-09
-1.11047e-06
6.64779e-09
-1.10993e-06
7.01196e-09
-1.10935e-06
7.33047e-09
-1.10874e-06
7.60056e-09
-1.10809e-06
7.81968e-09
-1.10741e-06
7.98549e-09
-1.10671e-06
8.0959e-09
-1.10599e-06
8.1491e-09
-1.10525e-06
8.1436e-09
-1.1045e-06
8.0782e-09
-1.10374e-06
7.95207e-09
-1.10298e-06
7.76476e-09
-1.10223e-06
-1.10147e-06
7.5162e-09
6.15548e-10
-1.01909e-06
1.31102e-09
-1.11031e-06
2.00309e-09
-1.11371e-06
2.68363e-09
-1.11366e-06
3.3484e-09
-1.11344e-06
3.99336e-09
-1.11316e-06
4.61457e-09
-1.11282e-06
5.2081e-09
-1.11243e-06
5.77015e-09
-1.11199e-06
6.29696e-09
-1.1115e-06
6.7849e-09
-1.11096e-06
7.23048e-09
-1.11038e-06
7.63031e-09
-1.10975e-06
7.98119e-09
-1.10909e-06
8.28012e-09
-1.10839e-06
8.52426e-09
-1.10766e-06
8.71106e-09
-1.1069e-06
8.83818e-09
-1.10612e-06
8.9036e-09
-1.10532e-06
8.9056e-09
-1.1045e-06
8.84282e-09
-1.10368e-06
8.71425e-09
-1.10286e-06
8.51931e-09
-1.10203e-06
-1.10121e-06
8.25782e-09
6.67119e-10
-1.01976e-06
1.42108e-09
-1.11106e-06
2.17153e-09
-1.11446e-06
2.90973e-09
-1.1144e-06
3.63114e-09
-1.11416e-06
4.3315e-09
-1.11386e-06
5.00656e-09
-1.1135e-06
5.65215e-09
-1.11308e-06
6.26416e-09
-1.1126e-06
6.8386e-09
-1.11207e-06
7.37153e-09
-1.11149e-06
7.85919e-09
-1.11087e-06
8.2979e-09
-1.11019e-06
8.6842e-09
-1.10947e-06
9.01477e-09
-1.10872e-06
9.28653e-09
-1.10793e-06
9.49664e-09
-1.10711e-06
9.64251e-09
-1.10626e-06
9.72185e-09
-1.1054e-06
9.73273e-09
-1.10452e-06
9.67355e-09
-1.10362e-06
9.54313e-09
-1.10272e-06
9.34072e-09
-1.10183e-06
-1.10094e-06
9.06601e-09
7.22512e-10
-1.02048e-06
1.53932e-09
-1.11188e-06
2.35252e-09
-1.11527e-06
3.15272e-09
-1.1152e-06
3.9351e-09
-1.11494e-06
4.6951e-09
-1.11462e-06
5.42821e-09
-1.11423e-06
6.12998e-09
-1.11378e-06
6.79601e-09
-1.11327e-06
7.422e-09
-1.1127e-06
8.00374e-09
-1.11208e-06
8.53714e-09
-1.1114e-06
9.01825e-09
-1.11067e-06
9.44326e-09
-1.1099e-06
9.80859e-09
-1.10909e-06
1.01108e-08
-1.10823e-06
1.03468e-08
-1.10735e-06
1.05137e-08
-1.10643e-06
1.0609e-08
-1.10549e-06
1.06303e-08
-1.10454e-06
1.05759e-08
-1.10357e-06
1.04444e-08
-1.10259e-06
1.02348e-08
-1.10162e-06
-1.10065e-06
9.94663e-09
7.81962e-10
-1.02126e-06
1.66625e-09
-1.11276e-06
2.54684e-09
-1.11615e-06
3.41366e-09
-1.11607e-06
4.26159e-09
-1.11579e-06
5.08578e-09
-1.11544e-06
5.88143e-09
-1.11503e-06
6.64379e-09
-1.11454e-06
7.36817e-09
-1.11399e-06
8.04995e-09
-1.11338e-06
8.68461e-09
-1.11271e-06
9.26773e-09
-1.11198e-06
9.79503e-09
-1.1112e-06
1.02624e-08
-1.11037e-06
1.06659e-08
-1.10949e-06
1.10018e-08
-1.10857e-06
1.12665e-08
-1.10761e-06
1.1457e-08
-1.10662e-06
1.15704e-08
-1.10561e-06
1.1604e-08
-1.10457e-06
1.15558e-08
-1.10352e-06
1.14241e-08
-1.10246e-06
1.12078e-08
-1.1014e-06
-1.10035e-06
1.09061e-08
8.45709e-10
-1.02211e-06
1.80238e-09
-1.11372e-06
2.75528e-09
-1.1171e-06
3.69363e-09
-1.117e-06
4.61198e-09
-1.11671e-06
5.50519e-09
-1.11634e-06
6.36817e-09
-1.11589e-06
7.19585e-09
-1.11537e-06
7.98322e-09
-1.11478e-06
8.72534e-09
-1.11412e-06
9.41735e-09
-1.1134e-06
1.00545e-08
-1.11262e-06
1.06321e-08
-1.11178e-06
1.11458e-08
-1.11088e-06
1.15912e-08
-1.10993e-06
1.19642e-08
-1.10894e-06
1.2261e-08
-1.10791e-06
1.2478e-08
-1.10684e-06
1.26119e-08
-1.10574e-06
1.26599e-08
-1.10462e-06
1.26196e-08
-1.10348e-06
1.24889e-08
-1.10233e-06
1.22665e-08
-1.10118e-06
-1.10003e-06
1.19513e-08
9.13998e-10
-1.02302e-06
1.94824e-09
-1.11475e-06
2.97867e-09
-1.11813e-06
3.99373e-09
-1.11802e-06
4.98768e-09
-1.1177e-06
5.95507e-09
-1.1173e-06
6.89047e-09
-1.11682e-06
7.78851e-09
-1.11627e-06
8.64384e-09
-1.11564e-06
9.45119e-09
-1.11493e-06
1.02053e-08
-1.11416e-06
1.09012e-08
-1.11331e-06
1.15337e-08
-1.11241e-06
1.2098e-08
-1.11145e-06
1.25894e-08
-1.11043e-06
1.30034e-08
-1.10936e-06
1.33357e-08
-1.10824e-06
1.35824e-08
-1.10709e-06
1.37398e-08
-1.1059e-06
1.38047e-08
-1.10468e-06
1.37742e-08
-1.10345e-06
1.3646e-08
-1.1022e-06
1.34183e-08
-1.10095e-06
-1.09971e-06
1.30899e-08
9.8708e-10
-1.02401e-06
2.10437e-09
-1.11587e-06
3.21784e-09
-1.11925e-06
4.31512e-09
-1.11912e-06
5.39015e-09
-1.11878e-06
6.43715e-09
-1.11835e-06
7.4504e-09
-1.11784e-06
8.42417e-09
-1.11724e-06
9.35279e-09
-1.11656e-06
1.02306e-08
-1.11581e-06
1.1052e-08
-1.11498e-06
1.18116e-08
-1.11407e-06
1.25038e-08
-1.1131e-06
1.31235e-08
-1.11206e-06
1.36654e-08
-1.11097e-06
1.41247e-08
-1.10981e-06
1.44966e-08
-1.10861e-06
1.47767e-08
-1.10737e-06
1.49609e-08
-1.10608e-06
1.50454e-08
-1.10477e-06
1.50271e-08
-1.10343e-06
1.49032e-08
-1.10208e-06
1.46714e-08
-1.10072e-06
-1.09936e-06
1.43302e-08
1.06521e-09
-1.02507e-06
2.27132e-09
-1.11708e-06
3.47364e-09
-1.12045e-06
4.65895e-09
-1.1203e-06
5.82084e-09
-1.11994e-06
6.95325e-09
-1.11948e-06
8.0501e-09
-1.11893e-06
9.10533e-09
-1.1183e-06
1.01129e-08
-1.11757e-06
1.10668e-08
-1.11676e-06
1.19611e-08
-1.11587e-06
1.27898e-08
-1.1149e-06
1.35471e-08
-1.11386e-06
1.42272e-08
-1.11275e-06
1.48247e-08
-1.11156e-06
1.53339e-08
-1.11032e-06
1.57498e-08
-1.10903e-06
1.60674e-08
-1.10768e-06
1.62821e-08
-1.1063e-06
1.63896e-08
-1.10488e-06
1.63862e-08
-1.10343e-06
1.62687e-08
-1.10196e-06
1.60343e-08
-1.10049e-06
-1.09901e-06
1.56812e-08
1.14864e-09
-1.02622e-06
2.44964e-09
-1.11838e-06
3.74692e-09
-1.12175e-06
5.02637e-09
-1.12158e-06
6.28126e-09
-1.1212e-06
7.50517e-09
-1.12071e-06
8.69172e-09
-1.12012e-06
9.8345e-09
-1.11944e-06
1.09271e-08
-1.11866e-06
1.19631e-08
-1.1178e-06
1.29362e-08
-1.11685e-06
1.38399e-08
-1.11581e-06
1.4668e-08
-1.11469e-06
1.54143e-08
-1.11349e-06
1.60727e-08
-1.11222e-06
1.66372e-08
-1.11089e-06
1.7102e-08
-1.10949e-06
1.74617e-08
-1.10804e-06
1.77111e-08
-1.10655e-06
1.78454e-08
-1.10501e-06
1.78601e-08
-1.10344e-06
1.77516e-08
-1.10185e-06
1.75166e-08
-1.10025e-06
-1.09865e-06
1.71526e-08
1.23762e-09
-1.02746e-06
2.63989e-09
-1.11978e-06
4.03855e-09
-1.12315e-06
5.41858e-09
-1.12296e-06
6.77288e-09
-1.12255e-06
8.09476e-09
-1.12203e-06
9.37747e-09
-1.1214e-06
1.06142e-08
-1.12068e-06
1.17983e-08
-1.11985e-06
1.29228e-08
-1.11892e-06
1.39811e-08
-1.1179e-06
1.49662e-08
-1.11679e-06
1.58714e-08
-1.11559e-06
1.66899e-08
-1.11431e-06
1.74152e-08
-1.11295e-06
1.80407e-08
-1.11151e-06
1.856e-08
-1.11001e-06
1.89671e-08
-1.10845e-06
1.9256e-08
-1.10684e-06
1.94213e-08
-1.10518e-06
1.9458e-08
-1.10348e-06
1.93617e-08
-1.10176e-06
1.91284e-08
-1.10002e-06
-1.09827e-06
1.87552e-08
1.33241e-09
-1.02879e-06
2.84261e-09
-1.12129e-06
4.34937e-09
-1.12465e-06
5.83671e-09
-1.12445e-06
7.29721e-09
-1.12401e-06
8.72383e-09
-1.12346e-06
1.01095e-08
-1.12279e-06
1.14471e-08
-1.12201e-06
1.27295e-08
-1.12113e-06
1.39494e-08
-1.12014e-06
1.50997e-08
-1.11905e-06
1.61729e-08
-1.11787e-06
1.7162e-08
-1.11658e-06
1.80595e-08
-1.11521e-06
1.88582e-08
-1.11375e-06
1.95511e-08
-1.11221e-06
2.0131e-08
-1.11059e-06
2.05913e-08
-1.10891e-06
2.09252e-08
-1.10717e-06
2.11266e-08
-1.10538e-06
2.11898e-08
-1.10354e-06
2.11094e-08
-1.10168e-06
2.08809e-08
-1.09979e-06
-1.09789e-06
2.05006e-08
1.43325e-09
-1.03022e-06
3.05833e-09
-1.12291e-06
4.68022e-09
-1.12627e-06
6.28192e-09
-1.12605e-06
7.85569e-09
-1.12558e-06
9.39419e-09
-1.12499e-06
1.089e-08
-1.12429e-06
1.23357e-08
-1.12346e-06
1.37236e-08
-1.12252e-06
1.50462e-08
-1.12147e-06
1.62958e-08
-1.1203e-06
1.74646e-08
-1.11903e-06
1.85448e-08
-1.11766e-06
1.95285e-08
-1.11619e-06
2.04079e-08
-1.11463e-06
2.11752e-08
-1.11297e-06
2.18226e-08
-1.11124e-06
2.23426e-08
-1.10943e-06
2.27277e-08
-1.10755e-06
2.2971e-08
-1.10562e-06
2.30658e-08
-1.10364e-06
2.3006e-08
-1.10162e-06
2.27861e-08
-1.09957e-06
-1.09751e-06
2.24015e-08
1.54037e-09
-1.03176e-06
3.28757e-09
-1.12466e-06
5.03188e-09
-1.12802e-06
6.7553e-09
-1.12777e-06
8.44976e-09
-1.12728e-06
1.01076e-08
-1.12665e-06
1.17211e-08
-1.1259e-06
1.32824e-08
-1.12502e-06
1.47836e-08
-1.12402e-06
1.62167e-08
-1.1229e-06
1.75734e-08
-1.12166e-06
1.88456e-08
-1.12031e-06
2.00248e-08
-1.11884e-06
2.11027e-08
-1.11727e-06
2.20706e-08
-1.11559e-06
2.292e-08
-1.11382e-06
2.36425e-08
-1.11196e-06
2.42296e-08
-1.11002e-06
2.46731e-08
-1.108e-06
2.49649e-08
-1.10591e-06
2.50974e-08
-1.10377e-06
2.50636e-08
-1.10158e-06
2.48569e-08
-1.09936e-06
-1.09712e-06
2.44716e-08
1.654e-09
-1.03342e-06
3.53081e-09
-1.12654e-06
5.40514e-09
-1.12989e-06
7.25792e-09
-1.12963e-06
9.08076e-09
-1.1291e-06
1.08657e-08
-1.12844e-06
1.26048e-08
-1.12764e-06
1.42898e-08
-1.12671e-06
1.59123e-08
-1.12564e-06
1.74641e-08
-1.12445e-06
1.89363e-08
-1.12313e-06
2.03203e-08
-1.12169e-06
2.16071e-08
-1.12013e-06
2.27876e-08
-1.11845e-06
2.38526e-08
-1.11666e-06
2.47928e-08
-1.11476e-06
2.55988e-08
-1.11277e-06
2.62613e-08
-1.11068e-06
2.67711e-08
-1.10851e-06
2.71191e-08
-1.10626e-06
2.72965e-08
-1.10395e-06
2.7295e-08
-1.10158e-06
2.71071e-08
-1.09917e-06
-1.09674e-06
2.67258e-08
1.77433e-09
-1.03519e-06
3.7885e-09
-1.12855e-06
5.8007e-09
-1.13191e-06
7.79075e-09
-1.13162e-06
9.74999e-09
-1.13106e-06
1.16702e-08
-1.13036e-06
1.35431e-08
-1.12951e-06
1.53601e-08
-1.12852e-06
1.71125e-08
-1.1274e-06
1.87916e-08
-1.12613e-06
2.03882e-08
-1.12473e-06
2.1893e-08
-1.1232e-06
2.32965e-08
-1.12153e-06
2.4589e-08
-1.11974e-06
2.57604e-08
-1.11783e-06
2.68007e-08
-1.1158e-06
2.76997e-08
-1.11367e-06
2.84469e-08
-1.11143e-06
2.9032e-08
-1.10909e-06
2.94449e-08
-1.10667e-06
2.96754e-08
-1.10418e-06
2.97141e-08
-1.10162e-06
2.95518e-08
-1.09901e-06
-1.09637e-06
2.91802e-08
1.90156e-09
-1.03709e-06
4.06106e-09
-1.13071e-06
6.2192e-09
-1.13406e-06
8.35469e-09
-1.13375e-06
1.04586e-08
-1.13316e-06
1.25225e-08
-1.13242e-06
1.45377e-08
-1.13153e-06
1.64955e-08
-1.13048e-06
1.83868e-08
-1.12929e-06
2.02024e-08
-1.12795e-06
2.19327e-08
-1.12646e-06
2.3568e-08
-1.12483e-06
2.5098e-08
-1.12306e-06
2.65124e-08
-1.12116e-06
2.78005e-08
-1.11912e-06
2.89512e-08
-1.11696e-06
2.99534e-08
-1.11467e-06
3.07957e-08
-1.11227e-06
3.14664e-08
-1.10976e-06
3.19542e-08
-1.10716e-06
3.22476e-08
-1.10447e-06
3.23354e-08
-1.10171e-06
3.22069e-08
-1.09888e-06
-1.09602e-06
3.18523e-08
2.03584e-09
-1.03913e-06
4.34883e-09
-1.13302e-06
6.66121e-09
-1.13638e-06
8.95053e-09
-1.13604e-06
1.12076e-08
-1.13542e-06
1.34238e-08
-1.13464e-06
1.55903e-08
-1.13369e-06
1.7698e-08
-1.13259e-06
1.97375e-08
-1.13133e-06
2.16992e-08
-1.12991e-06
2.35732e-08
-1.12833e-06
2.5349e-08
-1.12661e-06
2.70161e-08
-1.12473e-06
2.85632e-08
-1.1227e-06
2.9979e-08
-1.12054e-06
3.12514e-08
-1.11823e-06
3.23684e-08
-1.11579e-06
3.33173e-08
-1.11322e-06
3.40853e-08
-1.11053e-06
3.46594e-08
-1.10773e-06
3.50267e-08
-1.10484e-06
3.51742e-08
-1.10185e-06
3.50896e-08
-1.0988e-06
-1.09569e-06
3.47608e-08
2.17729e-09
-1.04131e-06
4.6521e-09
-1.1355e-06
7.12718e-09
-1.13885e-06
9.57892e-09
-1.13849e-06
1.19979e-08
-1.13784e-06
1.43754e-08
-1.13701e-06
1.67023e-08
-1.13602e-06
1.89693e-08
-1.13486e-06
2.11668e-08
-1.13352e-06
2.32847e-08
-1.13203e-06
2.53127e-08
-1.13036e-06
2.72399e-08
-1.12853e-06
2.90552e-08
-1.12654e-06
3.07466e-08
-1.1244e-06
3.2302e-08
-1.12209e-06
3.37085e-08
-1.11963e-06
3.49529e-08
-1.11703e-06
3.60212e-08
-1.11429e-06
3.68994e-08
-1.11141e-06
3.75729e-08
-1.10841e-06
3.8027e-08
-1.10529e-06
3.82468e-08
-1.10207e-06
3.82178e-08
-1.09877e-06
-1.0954e-06
3.79258e-08
2.326e-09
-1.04363e-06
4.97108e-09
-1.13814e-06
7.61747e-09
-1.1415e-06
1.02404e-08
-1.14112e-06
1.28302e-08
-1.14043e-06
1.53781e-08
-1.13956e-06
1.78749e-08
-1.13852e-06
2.03109e-08
-1.13729e-06
2.26763e-08
-1.13589e-06
2.49609e-08
-1.13431e-06
2.71539e-08
-1.13255e-06
2.92439e-08
-1.13062e-06
3.12192e-08
-1.12852e-06
3.30674e-08
-1.12624e-06
3.47753e-08
-1.1238e-06
3.63293e-08
-1.12119e-06
3.77149e-08
-1.11842e-06
3.8917e-08
-1.11549e-06
3.992e-08
-1.11241e-06
4.07077e-08
-1.1092e-06
4.12633e-08
-1.10585e-06
4.157e-08
-1.10238e-06
4.16107e-08
-1.09881e-06
-1.09515e-06
4.13687e-08
2.48202e-09
-1.04612e-06
5.3059e-09
-1.14097e-06
8.13229e-09
-1.14432e-06
1.09352e-08
-1.14392e-06
1.37049e-08
-1.1432e-06
1.64326e-08
-1.14229e-06
1.91087e-08
-1.14119e-06
2.17238e-08
-1.13991e-06
2.42676e-08
-1.13843e-06
2.67297e-08
-1.13677e-06
2.9099e-08
-1.13492e-06
3.13638e-08
-1.13289e-06
3.35117e-08
-1.13067e-06
3.55298e-08
-1.12826e-06
3.74041e-08
-1.12567e-06
3.912e-08
-1.1229e-06
4.0662e-08
-1.11996e-06
4.20136e-08
-1.11684e-06
4.31578e-08
-1.11356e-06
4.40763e-08
-1.11011e-06
4.47505e-08
-1.10652e-06
4.5161e-08
-1.10279e-06
4.52882e-08
-1.09894e-06
-1.09498e-06
4.51123e-08
2.64535e-09
-1.04876e-06
5.65658e-09
-1.14398e-06
8.67169e-09
-1.14734e-06
1.16635e-08
-1.14691e-06
1.46223e-08
-1.14616e-06
1.7539e-08
-1.14521e-06
2.04044e-08
-1.14406e-06
2.32086e-08
-1.14271e-06
2.59415e-08
-1.14117e-06
2.85923e-08
-1.13942e-06
3.11497e-08
-1.13748e-06
3.36017e-08
-1.13534e-06
3.59355e-08
-1.133e-06
3.81374e-08
-1.13046e-06
4.01929e-08
-1.12773e-06
4.20864e-08
-1.1248e-06
4.38012e-08
-1.12167e-06
4.53198e-08
-1.11836e-06
4.66231e-08
-1.11486e-06
4.76914e-08
-1.11118e-06
4.85035e-08
-1.10733e-06
4.90376e-08
-1.10333e-06
4.9271e-08
-1.09917e-06
-1.09489e-06
4.91805e-08
2.81594e-09
-1.05158e-06
6.02304e-09
-1.14719e-06
9.23557e-09
-1.15055e-06
1.24251e-08
-1.1501e-06
1.55821e-08
-1.14932e-06
1.86974e-08
-1.14832e-06
2.17618e-08
-1.14712e-06
2.47656e-08
-1.14571e-06
2.76983e-08
-1.1441e-06
3.05493e-08
-1.14227e-06
3.33071e-08
-1.14024e-06
3.59592e-08
-1.13799e-06
3.84925e-08
-1.13553e-06
4.0893e-08