/*--------------------------------*- C++ -*----------------------------------*\
| =========                 |                                                 |
| \\      /  F ield         | foam-extend: Open Source CFD                    |
|  \\    /   O peration     | Version:  3.0                                   |
|   \\  /    A nd           | Web:         http://www.extend-project.de       |
|    \\/     M anipulation  |                                                 |
\*---------------------------------------------------------------------------*/
FoamFile
{
    version     2.0;
    format      ascii;
    class       volVectorField;
    location    "0.005";
    object      U;
}
// * * * * * * * * * * * * * * * * * * * * * * * * * * * * * * * * * * * * * //

dimensions      [0 1 -1 0 0 0 0];

internalField   nonuniform List<vector> 
10470
(
(0.00401177 9.53164e-08 0)
(0.00436986 3.06495e-07 0)
(0.00438355 5.30402e-07 0)
(0.00438395 7.44839e-07 0)
(0.00438386 9.52994e-07 0)
(0.00438374 1.15125e-06 0)
(0.0043836 1.33784e-06 0)
(0.00438343 1.51069e-06 0)
(0.00438325 1.66789e-06 0)
(0.00438304 1.8076e-06 0)
(0.00438282 1.92809e-06 0)
(0.00438258 2.02775e-06 0)
(0.00438233 2.10511e-06 0)
(0.00438206 2.15884e-06 0)
(0.00438178 2.18775e-06 0)
(0.0043815 2.19081e-06 0)
(0.00438121 2.16716e-06 0)
(0.00438091 2.11613e-06 0)
(0.00438061 2.03721e-06 0)
(0.00438032 1.93013e-06 0)
(0.00438002 1.79462e-06 0)
(0.00437973 1.63176e-06 0)
(0.00437945 1.43839e-06 0)
(0.00437918 1.22871e-06 0)
(0.00401198 1.06497e-07 0)
(0.0043701 3.42678e-07 0)
(0.00438378 5.93312e-07 0)
(0.00438417 8.33494e-07 0)
(0.00438408 1.06693e-06 0)
(0.00438395 1.28962e-06 0)
(0.00438379 1.49967e-06 0)
(0.00438361 1.69484e-06 0)
(0.00438341 1.87303e-06 0)
(0.00438318 2.03225e-06 0)
(0.00438294 2.17063e-06 0)
(0.00438268 2.28642e-06 0)
(0.0043824 2.37801e-06 0)
(0.00438211 2.44395e-06 0)
(0.0043818 2.48294e-06 0)
(0.00438149 2.49387e-06 0)
(0.00438117 2.47579e-06 0)
(0.00438085 2.42795e-06 0)
(0.00438052 2.3498e-06 0)
(0.00438019 2.24103e-06 0)
(0.00437987 2.10129e-06 0)
(0.00437955 1.93178e-06 0)
(0.00437924 1.72873e-06 0)
(0.00437894 1.50664e-06 0)
(0.00401221 1.18681e-07 0)
(0.00437036 3.82153e-07 0)
(0.00438404 6.61988e-07 0)
(0.00438442 9.30293e-07 0)
(0.00438432 1.19135e-06 0)
(0.00438418 1.44075e-06 0)
(0.00438401 1.67646e-06 0)
(0.00438381 1.89604e-06 0)
(0.00438359 2.09723e-06 0)
(0.00438334 2.27785e-06 0)
(0.00438308 2.43588e-06 0)
(0.00438279 2.56941e-06 0)
(0.00438249 2.67669e-06 0)
(0.00438217 2.75615e-06 0)
(0.00438183 2.80636e-06 0)
(0.00438149 2.82609e-06 0)
(0.00438114 2.81433e-06 0)
(0.00438078 2.77024e-06 0)
(0.00438043 2.6932e-06 0)
(0.00438007 2.58287e-06 0)
(0.00437971 2.43881e-06 0)
(0.00437936 2.26227e-06 0)
(0.00437902 2.04917e-06 0)
(0.00437869 1.81397e-06 0)
(0.00401247 1.31959e-07 0)
(0.00437065 4.25204e-07 0)
(0.00438433 7.36908e-07 0)
(0.0043847 1.03591e-06 0)
(0.00438459 1.32713e-06 0)
(0.00438444 1.6057e-06 0)
(0.00438425 1.86946e-06 0)
(0.00438403 2.11574e-06 0)
(0.00438379 2.34209e-06 0)
(0.00438352 2.54617e-06 0)
(0.00438323 2.72575e-06 0)
(0.00438292 2.87878e-06 0)
(0.00438259 3.00335e-06 0)
(0.00438224 3.09773e-06 0)
(0.00438187 3.16039e-06 0)
(0.0043815 3.18997e-06 0)
(0.00438112 3.18536e-06 0)
(0.00438073 3.14563e-06 0)
(0.00438033 3.0701e-06 0)
(0.00437994 2.95836e-06 0)
(0.00437955 2.80994e-06 0)
(0.00437916 2.62605e-06 0)
(0.00437879 2.40254e-06 0)
(0.00437842 2.1539e-06 0)
(0.00401277 1.46429e-07 0)
(0.00437098 4.72129e-07 0)
(0.00438465 8.18591e-07 0)
(0.00438502 1.15107e-06 0)
(0.00438489 1.4752e-06 0)
(0.00438472 1.78563e-06 0)
(0.00438452 2.08001e-06 0)
(0.00438428 2.35547e-06 0)
(0.00438402 2.60935e-06 0)
(0.00438373 2.8391e-06 0)
(0.00438341 3.04232e-06 0)
(0.00438307 3.21676e-06 0)
(0.00438271 3.36035e-06 0)
(0.00438232 3.47121e-06 0)
(0.00438193 3.54766e-06 0)
(0.00438152 3.58823e-06 0)
(0.0043811 3.59168e-06 0)
(0.00438067 3.557e-06 0)
(0.00438024 3.48342e-06 0)
(0.00437981 3.37049e-06 0)
(0.00437938 3.21768e-06 0)
(0.00437895 3.02618e-06 0)
(0.00437854 2.79182e-06 0)
(0.00437814 2.52911e-06 0)
(0.00401309 1.62188e-07 0)
(0.00437134 5.23254e-07 0)
(0.004385 9.07598e-07 0)
(0.00438536 1.27657e-06 0)
(0.00438523 1.63659e-06 0)
(0.00438504 1.98176e-06 0)
(0.00438482 2.30957e-06 0)
(0.00438456 2.6169e-06 0)
(0.00438428 2.90087e-06 0)
(0.00438396 3.15871e-06 0)
(0.00438361 3.38781e-06 0)
(0.00438324 3.58574e-06 0)
(0.00438284 3.75025e-06 0)
(0.00438243 3.87928e-06 0)
(0.00438199 3.97099e-06 0)
(0.00438154 4.0238e-06 0)
(0.00438108 4.03632e-06 0)
(0.00438062 4.00746e-06 0)
(0.00438014 3.93635e-06 0)
(0.00437967 3.82248e-06 0)
(0.0043792 3.66527e-06 0)
(0.00437874 3.46589e-06 0)
(0.00437828 3.22018e-06 0)
(0.00437784 2.94266e-06 0)
(0.00401345 1.79345e-07 0)
(0.00437174 5.7892e-07 0)
(0.0043854 1.00453e-06 0)
(0.00438575 1.41326e-06 0)
(0.0043856 1.81239e-06 0)
(0.0043854 2.19543e-06 0)
(0.00438516 2.55971e-06 0)
(0.00438488 2.90182e-06 0)
(0.00438456 3.21865e-06 0)
(0.00438422 3.5072e-06 0)
(0.00438384 3.76464e-06 0)
(0.00438343 3.98833e-06 0)
(0.004383 4.1758e-06 0)
(0.00438255 4.32484e-06 0)
(0.00438207 4.43344e-06 0)
(0.00438158 4.49985e-06 0)
(0.00438108 4.52256e-06 0)
(0.00438057 4.50037e-06 0)
(0.00438005 4.43231e-06 0)
(0.00437953 4.3178e-06 0)
(0.00437902 4.15621e-06 0)
(0.00437851 3.9487e-06 0)
(0.00437801 3.69109e-06 0)
(0.00437753 3.39792e-06 0)
(0.00401384 1.98011e-07 0)
(0.00437218 6.395e-07 0)
(0.00438584 1.11003e-06 0)
(0.00438618 1.56205e-06 0)
(0.00438601 2.00377e-06 0)
(0.00438579 2.42808e-06 0)
(0.00438553 2.8321e-06 0)
(0.00438523 3.21216e-06 0)
(0.00438488 3.56486e-06 0)
(0.00438451 3.88697e-06 0)
(0.00438409 4.17541e-06 0)
(0.00438365 4.42731e-06 0)
(0.00438318 4.64e-06 0)
(0.00438269 4.81106e-06 0)
(0.00438217 4.93831e-06 0)
(0.00438163 5.01981e-06 0)
(0.00438109 5.05395e-06 0)
(0.00438053 5.03936e-06 0)
(0.00437996 4.97501e-06 0)
(0.00437939 4.86021e-06 0)
(0.00437883 4.69429e-06 0)
(0.00437827 4.47836e-06 0)
(0.00437772 4.20827e-06 0)
(0.00437719 3.89858e-06 0)
(0.00401428 2.18312e-07 0)
(0.00437267 7.05391e-07 0)
(0.00438632 1.22479e-06 0)
(0.00438665 1.72393e-06 0)
(0.00438647 2.21201e-06 0)
(0.00438623 2.68126e-06 0)
(0.00438594 3.12858e-06 0)
(0.00438561 3.54999e-06 0)
(0.00438524 3.94183e-06 0)
(0.00438483 4.30058e-06 0)
(0.00438438 4.62291e-06 0)
(0.0043839 4.90569e-06 0)
(0.00438339 5.14605e-06 0)
(0.00438285 5.34133e-06 0)
(0.00438228 5.48914e-06 0)
(0.0043817 5.5874e-06 0)
(0.0043811 5.6343e-06 0)
(0.00438049 5.62838e-06 0)
(0.00437987 5.56845e-06 0)
(0.00437925 5.45376e-06 0)
(0.00437863 5.28358e-06 0)
(0.00437802 5.05898e-06 0)
(0.00437742 4.77581e-06 0)
(0.00437684 4.44862e-06 0)
(0.00401476 2.40376e-07 0)
(0.00437321 7.77021e-07 0)
(0.00438686 1.34956e-06 0)
(0.00438717 1.89994e-06 0)
(0.00438697 2.43846e-06 0)
(0.00438671 2.95661e-06 0)
(0.0043864 3.45108e-06 0)
(0.00438604 3.91755e-06 0)
(0.00438564 4.35206e-06 0)
(0.00438519 4.7508e-06 0)
(0.0043847 5.11015e-06 0)
(0.00438418 5.42674e-06 0)
(0.00438362 5.69742e-06 0)
(0.00438303 5.9193e-06 0)
(0.00438242 6.08979e-06 0)
(0.00438178 6.2066e-06 0)
(0.00438113 6.26777e-06 0)
(0.00438046 6.27166e-06 0)
(0.00437979 6.21698e-06 0)
(0.00437911 6.10287e-06 0)
(0.00437843 5.92853e-06 0)
(0.00437776 5.69499e-06 0)
(0.00437711 5.39811e-06 0)
(0.00437647 5.05242e-06 0)
(0.00401528 2.64346e-07 0)
(0.0043738 8.54848e-07 0)
(0.00438744 1.48515e-06 0)
(0.00438774 2.09121e-06 0)
(0.00438753 2.68458e-06 0)
(0.00438725 3.25593e-06 0)
(0.00438691 3.80171e-06 0)
(0.00438652 4.31725e-06 0)
(0.00438608 4.79826e-06 0)
(0.00438559 5.24061e-06 0)
(0.00438506 5.6404e-06 0)
(0.00438449 5.99395e-06 0)
(0.00438388 6.29783e-06 0)
(0.00438324 6.54893e-06 0)
(0.00438257 6.7444e-06 0)
(0.00438188 6.88175e-06 0)
(0.00438117 6.95881e-06 0)
(0.00438044 6.9738e-06 0)
(0.0043797 6.92528e-06 0)
(0.00437896 6.81229e-06 0)
(0.00437822 6.63394e-06 0)
(0.00437749 6.39121e-06 0)
(0.00437677 6.07997e-06 0)
(0.00437607 5.71471e-06 0)
(0.00401587 2.90371e-07 0)
(0.00437445 9.39366e-07 0)
(0.00438809 1.63241e-06 0)
(0.00438838 2.29898e-06 0)
(0.00438814 2.95195e-06 0)
(0.00438784 3.58114e-06 0)
(0.00438747 4.18272e-06 0)
(0.00438704 4.75166e-06 0)
(0.00438657 5.28332e-06 0)
(0.00438604 5.77323e-06 0)
(0.00438546 6.21714e-06 0)
(0.00438484 6.61108e-06 0)
(0.00438418 6.95132e-06 0)
(0.00438348 7.23447e-06 0)
(0.00438275 7.45744e-06 0)
(0.004382 7.61749e-06 0)
(0.00438122 7.71226e-06 0)
(0.00438043 7.73976e-06 0)
(0.00437962 7.69843e-06 0)
(0.00437882 7.58716e-06 0)
(0.00437801 7.405e-06 0)
(0.00437721 7.15285e-06 0)
(0.00437642 6.82656e-06 0)
(0.00437565 6.44063e-06 0)
(0.0040165 3.18615e-07 0)
(0.00437517 1.0311e-06 0)
(0.0043888 1.79226e-06 0)
(0.00438907 2.52453e-06 0)
(0.00438882 3.24224e-06 0)
(0.00438848 3.93427e-06 0)
(0.00438809 4.59654e-06 0)
(0.00438762 5.22357e-06 0)
(0.0043871 5.81036e-06 0)
(0.00438653 6.35208e-06 0)
(0.0043859 6.84413e-06 0)
(0.00438523 7.28218e-06 0)
(0.00438451 7.66222e-06 0)
(0.00438375 7.98052e-06 0)
(0.00438296 8.23373e-06 0)
(0.00438213 8.41886e-06 0)
(0.00438129 8.53331e-06 0)
(0.00438043 8.57491e-06 0)
(0.00437955 8.54191e-06 0)
(0.00437867 8.43308e-06 0)
(0.00437779 8.24734e-06 0)
(0.00437691 7.98556e-06 0)
(0.00437605 7.64354e-06 0)
(0.00437521 7.23578e-06 0)
(0.0040172 3.49249e-07 0)
(0.00437596 1.13062e-06 0)
(0.00438958 1.96569e-06 0)
(0.00438984 2.76927e-06 0)
(0.00438956 3.55727e-06 0)
(0.0043892 4.31755e-06 0)
(0.00438876 5.04575e-06 0)
(0.00438826 5.73594e-06 0)
(0.0043877 6.38273e-06 0)
(0.00438707 6.98087e-06 0)
(0.00438639 7.5254e-06 0)
(0.00438566 8.01163e-06 0)
(0.00438488 8.43518e-06 0)
(0.00438405 8.79201e-06 0)
(0.00438319 9.07847e-06 0)
(0.0043823 9.29128e-06 0)
(0.00438138 9.4276e-06 0)
(0.00438044 9.48504e-06 0)
(0.00437948 9.46165e-06 0)
(0.00437852 9.35606e-06 0)
(0.00437756 9.16708e-06 0)
(0.00437661 8.89546e-06 0)
(0.00437566 8.53703e-06 0)
(0.00437474 8.10619e-06 0)
(0.00401797 3.82461e-07 0)
(0.00437682 1.23852e-06 0)
(0.00439044 2.15376e-06 0)
(0.00439067 3.03469e-06 0)
(0.00439037 3.89896e-06 0)
(0.00438998 4.73334e-06 0)
(0.00438951 5.53313e-06 0)
(0.00438897 6.29197e-06 0)
(0.00438836 7.004e-06 0)
(0.00438768 7.66357e-06 0)
(0.00438694 8.26529e-06 0)
(0.00438614 8.80409e-06 0)
(0.00438529 9.27521e-06 0)
(0.00438439 9.67426e-06 0)
(0.00438346 9.99724e-06 0)
(0.00438248 1.02406e-05 0)
(0.00438148 1.04012e-05 0)
(0.00438046 1.04764e-05 0)
(0.00437942 1.04641e-05 0)
(0.00437837 1.03626e-05 0)
(0.00437733 1.01708e-05 0)
(0.00437628 9.88921e-06 0)
(0.00437526 9.51365e-06 0)
(0.00437425 9.05849e-06 0)
(0.00401881 4.18446e-07 0)
(0.00437777 1.35545e-06 0)
(0.00439138 2.3576e-06 0)
(0.00439159 3.3224e-06 0)
(0.00439126 4.26938e-06 0)
(0.00439084 5.18414e-06 0)
(0.00439033 6.06167e-06 0)
(0.00438974 6.89507e-06 0)
(0.00438908 7.67803e-06 0)
(0.00438834 8.40444e-06 0)
(0.00438754 9.06846e-06 0)
(0.00438667 9.6646e-06 0)
(0.00438575 1.01877e-05 0)
(0.00438478 1.0633e-05 0)
(0.00438376 1.09961e-05 0)
(0.0043827 1.12731e-05 0)
(0.00438161 1.14606e-05 0)
(0.0043805 1.15558e-05 0)
(0.00437937 1.15561e-05 0)
(0.00437823 1.14599e-05 0)
(0.00437708 1.12657e-05 0)
(0.00437595 1.0974e-05 0)
(0.00437482 1.05806e-05 0)
(0.00437372 1.00998e-05 0)
(0.00401973 4.57419e-07 0)
(0.0043788 1.48211e-06 0)
(0.0043924 2.57841e-06 0)
(0.0043926 3.63409e-06 0)
(0.00439224 4.67074e-06 0)
(0.00439178 5.67268e-06 0)
(0.00439123 6.63454e-06 0)
(0.00439059 7.5489e-06 0)
(0.00438987 8.40893e-06 0)
(0.00438907 9.20803e-06 0)
(0.0043882 9.9399e-06 0)
(0.00438726 1.05986e-05 0)
(0.00438626 1.11784e-05 0)
(0.00438521 1.16743e-05 0)
(0.0043841 1.20815e-05 0)
(0.00438295 1.23956e-05 0)
(0.00438177 1.2613e-05 0)
(0.00438056 1.27304e-05 0)
(0.00437932 1.27452e-05 0)
(0.00437808 1.26554e-05 0)
(0.00437684 1.24594e-05 0)
(0.0043756 1.21576e-05 0)
(0.00437437 1.17457e-05 0)
(0.00437317 1.12379e-05 0)
(0.00402073 4.99601e-07 0)
(0.00437993 1.61922e-06 0)
(0.00439352 2.81748e-06 0)
(0.0043937 3.9716e-06 0)
(0.00439331 5.10539e-06 0)
(0.00439281 6.20183e-06 0)
(0.00439221 7.25516e-06 0)
(0.00439152 8.25737e-06 0)
(0.00439074 9.20111e-06 0)
(0.00438988 1.00792e-05 0)
(0.00438894 1.08849e-05 0)
(0.00438792 1.16118e-05 0)
(0.00438683 1.22536e-05 0)
(0.00438569 1.28049e-05 0)
(0.00438448 1.32603e-05 0)
(0.00438324 1.36154e-05 0)
(0.00438195 1.38658e-05 0)
(0.00438063 1.40081e-05 0)
(0.00437929 1.40394e-05 0)
(0.00437794 1.39575e-05 0)
(0.00437658 1.37604e-05 0)
(0.00437523 1.34486e-05 0)
(0.0043739 1.30175e-05 0)
(0.00437258 1.24813e-05 0)
(0.00402183 5.45236e-07 0)
(0.00438117 1.76758e-06 0)
(0.00439475 3.07619e-06 0)
(0.0043949 4.33686e-06 0)
(0.00439448 5.57586e-06 0)
(0.00439394 6.77467e-06 0)
(0.00439329 7.92715e-06 0)
(0.00439255 9.02466e-06 0)
(0.0043917 1.00593e-05 0)
(0.00439077 1.10233e-05 0)
(0.00438974 1.19093e-05 0)
(0.00438864 1.27104e-05 0)
(0.00438746 1.34199e-05 0)
(0.00438622 1.40317e-05 0)
(0.00438491 1.45402e-05 0)
(0.00438356 1.49403e-05 0)
(0.00438216 1.52273e-05 0)
(0.00438073 1.53975e-05 0)
(0.00437927 1.54476e-05 0)
(0.0043778 1.5375e-05 0)
(0.00437633 1.51778e-05 0)
(0.00437485 1.4856e-05 0)
(0.0043734 1.4405e-05 0)
(0.00437196 1.38391e-05 0)
(0.00402303 5.94576e-07 0)
(0.00438251 1.92801e-06 0)
(0.00439609 3.35599e-06 0)
(0.00439621 4.73195e-06 0)
(0.00439576 6.08481e-06 0)
(0.00439517 7.39447e-06 0)
(0.00439447 8.65438e-06 0)
(0.00439366 9.85521e-06 0)
(0.00439275 1.09884e-05 0)
(0.00439174 1.20457e-05 0)
(0.00439063 1.30192e-05 0)
(0.00438944 1.39011e-05 0)
(0.00438816 1.46845e-05 0)
(0.00438681 1.53625e-05 0)
(0.0043854 1.59291e-05 0)
(0.00438393 1.63787e-05 0)
(0.00438241 1.67063e-05 0)
(0.00438085 1.69076e-05 0)
(0.00437927 1.6979e-05 0)
(0.00437767 1.69177e-05 0)
(0.00437606 1.67213e-05 0)
(0.00437446 1.63898e-05 0)
(0.00437287 1.59184e-05 0)
(0.00437131 1.53212e-05 0)
(0.00402433 6.47896e-07 0)
(0.00438398 2.10141e-06 0)
(0.00439755 3.65844e-06 0)
(0.00439765 5.15906e-06 0)
(0.00439715 6.6351e-06 0)
(0.00439652 8.06473e-06 0)
(0.00439576 9.44097e-06 0)
(0.00439489 1.07538e-05 0)
(0.0043939 1.1994e-05 0)
(0.0043928 1.31526e-05 0)
(0.00439161 1.4221e-05 0)
(0.00439031 1.5191e-05 0)
(0.00438893 1.60549e-05 0)
(0.00438747 1.68054e-05 0)
(0.00438594 1.74357e-05 0)
(0.00438434 1.79399e-05 0)
(0.00438269 1.83123e-05 0)
(0.004381 1.85484e-05 0)
(0.00437928 1.8644e-05 0)
(0.00437754 1.85959e-05 0)
(0.0043758 1.84016e-05 0)
(0.00437405 1.80607e-05 0)
(0.00437232 1.75685e-05 0)
(0.00437062 1.69386e-05 0)
(0.00402575 7.05478e-07 0)
(0.00438559 2.2887e-06 0)
(0.00439914 3.98517e-06 0)
(0.00439921 5.62053e-06 0)
(0.00439867 7.22974e-06 0)
(0.00439799 8.78915e-06 0)
(0.00439717 1.02913e-05 0)
(0.00439623 1.17254e-05 0)
(0.00439516 1.30816e-05 0)
(0.00439397 1.43501e-05 0)
(0.00439268 1.55218e-05 0)
(0.00439128 1.65877e-05 0)
(0.00438978 1.75394e-05 0)
(0.0043882 1.8369e-05 0)
(0.00438654 1.90692e-05 0)
(0.00438481 1.96334e-05 0)
(0.00438302 2.00555e-05 0)
(0.00438119 2.03303e-05 0)
(0.00437932 2.04533e-05 0)
(0.00437743 2.04209e-05 0)
(0.00437552 2.02302e-05 0)
(0.00437362 1.98805e-05 0)
(0.00437174 1.93669e-05 0)
(0.00436988 1.87029e-05 0)
(0.0040273 7.67631e-07 0)
(0.00438733 2.49089e-06 0)
(0.00440088 4.33794e-06 0)
(0.00440091 6.11883e-06 0)
(0.00440033 7.87194e-06 0)
(0.0043996 9.57166e-06 0)
(0.00439871 1.121e-05 0)
(0.00439769 1.27755e-05 0)
(0.00439654 1.42573e-05 0)
(0.00439526 1.56451e-05 0)
(0.00439385 1.6929e-05 0)
(0.00439234 1.80991e-05 0)
(0.00439072 1.91466e-05 0)
(0.00438901 2.00627e-05 0)
(0.00438721 2.08396e-05 0)
(0.00438533 2.14698e-05 0)
(0.00438339 2.19468e-05 0)
(0.0043814 2.22649e-05 0)
(0.00437938 2.24189e-05 0)
(0.00437732 2.24049e-05 0)
(0.00437525 2.22195e-05 0)
(0.00437318 2.18617e-05 0)
(0.00437113 2.13265e-05 0)
(0.00436911 2.0627e-05 0)
(0.00402898 8.34671e-07 0)
(0.00438923 2.70902e-06 0)
(0.00440276 4.71858e-06 0)
(0.00440276 6.65658e-06 0)
(0.00440214 8.56509e-06 0)
(0.00440134 1.04164e-05 0)
(0.00440039 1.22021e-05 0)
(0.00439929 1.39096e-05 0)
(0.00439804 1.55276e-05 0)
(0.00439666 1.70448e-05 0)
(0.00439514 1.84504e-05 0)
(0.0043935 1.97341e-05 0)
(0.00439175 2.08859e-05 0)
(0.0043899 2.18966e-05 0)
(0.00438795 2.27574e-05 0)
(0.00438592 2.34603e-05 0)
(0.00438382 2.39981e-05 0)
(0.00438166 2.43643e-05 0)
(0.00437946 2.45534e-05 0)
(0.00437723 2.45609e-05 0)
(0.00437498 2.43829e-05 0)
(0.00437273 2.40181e-05 0)
(0.00437049 2.34611e-05 0)
(0.00436829 2.27248e-05 0)
(0.00403081 9.0694e-07 0)
(0.0043913 2.94421e-06 0)
(0.00440482 5.12903e-06 0)
(0.00440478 7.23652e-06 0)
(0.00440411 9.31276e-06 0)
(0.00440325 1.13278e-05 0)
(0.00440222 1.32726e-05 0)
(0.00440103 1.51339e-05 0)
(0.00439969 1.68993e-05 0)
(0.00439819 1.85568e-05 0)
(0.00439655 2.00946e-05 0)
(0.00439478 2.15017e-05 0)
(0.00439289 2.27672e-05 0)
(0.00439088 2.38811e-05 0)
(0.00438878 2.48339e-05 0)
(0.00438658 2.56168e-05 0)
(0.0043843 2.62218e-05 0)
(0.00438196 2.66418e-05 0)
(0.00437957 2.68706e-05 0)
(0.00437715 2.69031e-05 0)
(0.00437471 2.67349e-05 0)
(0.00437226 2.63644e-05 0)
(0.00436983 2.57857e-05 0)
(0.00436743 2.50114e-05 0)
(0.0040328 9.84788e-07 0)
(0.00439354 3.1976e-06 0)
(0.00440705 5.57134e-06 0)
(0.00440697 7.86156e-06 0)
(0.00440625 1.01187e-05 0)
(0.00440532 1.23105e-05 0)
(0.00440421 1.44272e-05 0)
(0.00440293 1.64547e-05 0)
(0.00440148 1.83796e-05 0)
(0.00439987 2.0189e-05 0)
(0.0043981 2.18704e-05 0)
(0.00439619 2.34116e-05 0)
(0.00439414 2.48011e-05 0)
(0.00439197 2.60278e-05 0)
(0.00438969 2.70814e-05 0)
(0.00438731 2.79522e-05 0)
(0.00438485 2.86316e-05 0)
(0.00438231 2.91115e-05 0)
(0.00437972 2.93852e-05 0)
(0.00437709 2.94468e-05 0)
(0.00437444 2.92914e-05 0)
(0.00437178 2.89167e-05 0)
(0.00436913 2.83166e-05 0)
(0.00436651 2.75032e-05 0)
(0.00403496 1.06859e-06 0)
(0.00439598 3.47043e-06 0)
(0.00440947 6.04765e-06 0)
(0.00440936 8.53475e-06 0)
(0.00440857 1.09869e-05 0)
(0.00440758 1.33693e-05 0)
(0.00440638 1.56716e-05 0)
(0.004405 1.78786e-05 0)
(0.00440344 1.99761e-05 0)
(0.0044017 2.19502e-05 0)
(0.00439979 2.37872e-05 0)
(0.00439773 2.54743e-05 0)
(0.00439552 2.69987e-05 0)
(0.00439318 2.83486e-05 0)
(0.00439071 2.95126e-05 0)
(0.00438814 3.04803e-05 0)
(0.00438547 3.12419e-05 0)
(0.00438272 3.17887e-05 0)
(0.00437991 3.21131e-05 0)
(0.00437706 3.22084e-05 0)
(0.00437417 3.20691e-05 0)
(0.00437128 3.16923e-05 0)
(0.0043684 3.10715e-05 0)
(0.00436555 3.02182e-05 0)
(0.0040373 1.15874e-06 0)
(0.00439862 3.76397e-06 0)
(0.00441211 6.56021e-06 0)
(0.00441194 9.25928e-06 0)
(0.0044111 1.19216e-05 0)
(0.00441003 1.45093e-05 0)
(0.00440874 1.70119e-05 0)
(0.00440725 1.94128e-05 0)
(0.00440557 2.16968e-05 0)
(0.00440369 2.38491e-05 0)
(0.00440164 2.5855e-05 0)
(0.00439941 2.77005e-05 0)
(0.00439703 2.93719e-05 0)
(0.0043945 3.08563e-05 0)
(0.00439183 3.21414e-05 0)
(0.00438905 3.32155e-05 0)
(0.00438616 3.40682e-05 0)
(0.00438319 3.46896e-05 0)
(0.00438014 3.50712e-05 0)
(0.00437705 3.52057e-05 0)
(0.00437392 3.50865e-05 0)
(0.00437078 3.47102e-05 0)
(0.00436765 3.40696e-05 0)
(0.00436454 3.31758e-05 0)
(0.00403984 1.25563e-06 0)
(0.00440149 4.07955e-06 0)
(0.00441496 7.11134e-06 0)
(0.00441475 1.00385e-05 0)
(0.00441384 1.29269e-05 0)
(0.00441269 1.5736e-05 0)
(0.00441131 1.84544e-05 0)
(0.00440971 2.10646e-05 0)
(0.00440789 2.35502e-05 0)
(0.00440587 2.58954e-05 0)
(0.00440366 2.80843e-05 0)
(0.00440126 3.01019e-05 0)
(0.00439869 3.19333e-05 0)
(0.00439596 3.35646e-05 0)
(0.00439308 3.49823e-05 0)
(0.00439007 3.61736e-05 0)
(0.00438695 3.7127e-05 0)
(0.00438373 3.78317e-05 0)
(0.00438043 3.8278e-05 0)
(0.00437707 3.84576e-05 0)
(0.00437368 3.83633e-05 0)
(0.00437027 3.79906e-05 0)
(0.00436686 3.73318e-05 0)
(0.00436348 3.63971e-05 0)
(0.00404259 1.35969e-06 0)
(0.0044046 4.41855e-06 0)
(0.00441805 7.7035e-06 0)
(0.00441779 1.08758e-05 0)
(0.00441682 1.40075e-05 0)
(0.00441558 1.70548e-05 0)
(0.00441409 2.00058e-05 0)
(0.00441237 2.28417e-05 0)
(0.00441042 2.55451e-05 0)
(0.00440825 2.80988e-05 0)
(0.00440586 3.04861e-05 0)
(0.00440328 3.26906e-05 0)
(0.00440051 3.46962e-05 0)
(0.00439756 3.64879e-05 0)
(0.00439446 3.80508e-05 0)
(0.00439121 3.93712e-05 0)
(0.00438783 4.04361e-05 0)
(0.00438435 4.12336e-05 0)
(0.00438077 4.1753e-05 0)
(0.00437714 4.19848e-05 0)
(0.00437345 4.19208e-05 0)
(0.00436975 4.15555e-05 0)
(0.00436604 4.08805e-05 0)
(0.00436237 3.99051e-05 0)
(0.00404556 1.47136e-06 0)
(0.00440796 4.7824e-06 0)
(0.00442141 8.33919e-06 0)
(0.00442109 1.17749e-05 0)
(0.00442004 1.51681e-05 0)
(0.00441871 1.84716e-05 0)
(0.00441712 2.1673e-05 0)
(0.00441527 2.47521e-05 0)
(0.00441317 2.76906e-05 0)
(0.00441084 3.04699e-05 0)
(0.00440827 3.3072e-05 0)
(0.00440549 3.54793e-05 0)
(0.0044025 3.76746e-05 0)
(0.00439933 3.96412e-05 0)
(0.00439598 4.13633e-05 0)
(0.00439247 4.28257e-05 0)
(0.00438882 4.40141e-05 0)
(0.00438505 4.49153e-05 0)
(0.00438119 4.55173e-05 0)
(0.00437724 4.58093e-05 0)
(0.00437325 4.5782e-05 0)
(0.00436922 4.54288e-05 0)
(0.0043652 4.47404e-05 0)
(0.0043612 4.3725e-05 0)
(0.00404879 1.59107e-06 0)
(0.00441161 5.17258e-06 0)
(0.00442503 9.02102e-06 0)
(0.00442467 1.27394e-05 0)
(0.00442354 1.64134e-05 0)
(0.00442211 1.99923e-05 0)
(0.0044204 2.34631e-05 0)
(0.00441842 2.68043e-05 0)
(0.00441616 2.99963e-05 0)
(0.00441365 3.30193e-05 0)
(0.0044109 3.5854e-05 0)
(0.0044079 3.84814e-05 0)
(0.00440469 4.0883e-05 0)
(0.00440127 4.30407e-05 0)
(0.00439765 4.49372e-05 0)
(0.00439387 4.65559e-05 0)
(0.00438993 4.78811e-05 0)
(0.00438586 4.8898e-05 0)
(0.00438167 4.95932e-05 0)
(0.0043774 4.99547e-05 0)
(0.00437307 4.99716e-05 0)
(0.0043687 4.96362e-05 0)
(0.00436433 4.89379e-05 0)
(0.00435998 4.78839e-05 0)
(0.00405227 1.71929e-06 0)
(0.00441555 5.59059e-06 0)
(0.00442896 9.75164e-06 0)
(0.00442853 1.37731e-05 0)
(0.00442732 1.77484e-05 0)
(0.00442579 2.16232e-05 0)
(0.00442396 2.53835e-05 0)
(0.00442183 2.90069e-05 0)
(0.00441941 3.24721e-05 0)
(0.00441672 3.57583e-05 0)
(0.00441376 3.88447e-05 0)
(0.00441054 4.17109e-05 0)
(0.00440708 4.43369e-05 0)
(0.0044034 4.67032e-05 0)
(0.00439951 4.87908e-05 0)
(0.00439542 5.05815e-05 0)
(0.00439117 5.20581e-05 0)
(0.00438677 5.32043e-05 0)
(0.00438225 5.40049e-05 0)
(0.00437762 5.44463e-05 0)
(0.00437293 5.45163e-05 0)
(0.00436819 5.42054e-05 0)
(0.00436344 5.35019e-05 0)
(0.0043587 5.24116e-05 0)
(0.00405603 1.85647e-06 0)
(0.00441981 6.03797e-06 0)
(0.0044332 1.05338e-05 0)
(0.00443271 1.488e-05 0)
(0.00443142 1.91783e-05 0)
(0.00442978 2.33704e-05 0)
(0.00442782 2.74419e-05 0)
(0.00442553 3.13686e-05 0)
(0.00442294 3.51283e-05 0)
(0.00442005 3.86986e-05 0)
(0.00441687 4.20572e-05 0)
(0.00441342 4.51823e-05 0)
(0.0044097 4.80523e-05 0)
(0.00440574 5.06461e-05 0)
(0.00440155 5.2943e-05 0)
(0.00439715 5.49233e-05 0)
(0.00439256 5.65677e-05 0)
(0.00438781 5.78582e-05 0)
(0.00438292 5.87779e-05 0)
(0.00437792 5.93114e-05 0)
(0.00437283 5.94446e-05 0)
(0.00436769 5.91664e-05 0)
(0.00436252 5.84636e-05 0)
(0.00435737 5.73402e-05 0)
(0.00406009 2.00311e-06 0)
(0.0044244 6.51629e-06 0)
(0.00443779 1.13702e-05 0)
(0.00443723 1.6064e-05 0)
(0.00443585 2.07082e-05 0)
(0.00443409 2.52405e-05 0)
(0.00443199 2.96459e-05 0)
(0.00442955 3.38987e-05 0)
(0.00442677 3.79753e-05 0)
(0.00442368 4.18519e-05 0)
(0.00442027 4.55048e-05 0)
(0.00441656 4.89105e-05 0)
(0.00441257 5.20458e-05 0)
(0.00440831 5.48878e-05 0)
(0.0044038 5.74142e-05 0)
(0.00439907 5.9603e-05 0)
(0.00439412 6.14334e-05 0)
(0.00438899 6.28852e-05 0)
(0.00438371 6.39395e-05 0)
(0.0043783 6.45789e-05 0)
(0.00437278 6.47872e-05 0)
(0.00436721 6.45515e-05 0)
(0.0043616 6.38567e-05 0)
(0.004356 6.27047e-05 0)
(0.00406448 2.15965e-06 0)
(0.00442937 7.02711e-06 0)
(0.00444273 1.22637e-05 0)
(0.00444211 1.7329e-05 0)
(0.00444063 2.23434e-05 0)
(0.00443876 2.724e-05 0)
(0.00443651 3.20034e-05 0)
(0.0044339 3.66063e-05 0)
(0.00443093 4.10239e-05 0)
(0.00442761 4.52307e-05 0)
(0.00442396 4.92015e-05 0)
(0.00441999 5.29112e-05 0)
(0.00441571 5.63347e-05 0)
(0.00441113 5.94475e-05 0)
(0.00440629 6.22251e-05 0)
(0.00440119 6.46436e-05 0)
(0.00439586 6.66801e-05 0)
(0.00439033 6.83121e-05 0)
(0.00438462 6.95186e-05 0)
(0.00437877 7.02797e-05 0)
(0.0043728 7.05772e-05 0)
(0.00436676 7.03955e-05 0)
(0.00436067 6.97178e-05 0)
(0.00435458 6.85433e-05 0)
(0.0040692 2.32657e-06 0)
(0.00443472 7.57199e-06 0)
(0.00444807 1.32171e-05 0)
(0.00444737 1.86791e-05 0)
(0.00444579 2.40891e-05 0)
(0.00444379 2.93755e-05 0)
(0.0044414 3.45222e-05 0)
(0.00443861 3.95008e-05 0)
(0.00443544 4.42848e-05 0)
(0.00443189 4.88472e-05 0)
(0.00442798 5.31612e-05 0)
(0.00442373 5.72e-05 0)
(0.00441913 6.09367e-05 0)
(0.00441423 6.43447e-05 0)
(0.00440902 6.73974e-05 0)
(0.00440354 7.0069e-05 0)
(0.00439781 7.23338e-05 0)
(0.00439185 7.41674e-05 0)
(0.00438569 7.55458e-05 0)
(0.00437936 7.64469e-05 0)
(0.0043729 7.68496e-05 0)
(0.00436635 7.67359e-05 0)
(0.00435974 7.60863e-05 0)
(0.00435311 7.48974e-05 0)
(0.00407429 2.50434e-06 0)
(0.00444048 8.15247e-06 0)
(0.00445382 1.4233e-05 0)
(0.00445305 2.01182e-05 0)
(0.00445136 2.59505e-05 0)
(0.00444923 3.16534e-05 0)
(0.00444668 3.72104e-05 0)
(0.0044437 4.25916e-05 0)
(0.00444032 4.77689e-05 0)
(0.00443653 5.2714e-05 0)
(0.00443235 5.73983e-05 0)
(0.0044278 6.17932e-05 0)
(0.00442288 6.58699e-05 0)
(0.00441762 6.95996e-05 0)
(0.00441204 7.29537e-05 0)
(0.00440615 7.59038e-05 0)
(0.00439998 7.84219e-05 0)
(0.00439356 8.04806e-05 0)
(0.00438692 8.20535e-05 0)
(0.00438008 8.31152e-05 0)
(0.0043731 8.3642e-05 0)
(0.00436599 8.36126e-05 0)
(0.00435882 8.30048e-05 0)
(0.00435162 8.18118e-05 0)
(0.00407976 2.69341e-06 0)
(0.00444669 8.77007e-06 0)
(0.00446001 1.53142e-05 0)
(0.00445916 2.16502e-05 0)
(0.00445737 2.79327e-05 0)
(0.0044551 3.40801e-05 0)
(0.00445238 4.00757e-05 0)
(0.00444921 4.58878e-05 0)
(0.0044456 5.14871e-05 0)
(0.00444156 5.68437e-05 0)
(0.0044371 6.19272e-05 0)
(0.00443223 6.67071e-05 0)
(0.00442698 7.11527e-05 0)
(0.00442134 7.5233e-05 0)
(0.00441536 7.8917e-05 0)
(0.00440903 8.21738e-05 0)
(0.00440241 8.49725e-05 0)
(0.0043955 8.7283e-05 0)
(0.00438833 8.90756e-05 0)
(0.00438096 9.03218e-05 0)
(0.0043734 9.09944e-05 0)
(0.00436571 9.10688e-05 0)
(0.00435793 9.05192e-05 0)
(0.0043501 8.93351e-05 0)
(0.00408565 2.89419e-06 0)
(0.00445336 9.42624e-06 0)
(0.00446668 1.64633e-05 0)
(0.00446574 2.32789e-05 0)
(0.00446384 3.00407e-05 0)
(0.00446143 3.6662e-05 0)
(0.00445854 4.31257e-05 0)
(0.00445516 4.93987e-05 0)
(0.00445132 5.54502e-05 0)
(0.00444701 6.12486e-05 0)
(0.00444226 6.67621e-05 0)
(0.00443706 7.1958e-05 0)
(0.00443145 7.68037e-05 0)
(0.00442542 8.12658e-05 0)
(0.00441901 8.53108e-05 0)
(0.00441223 8.89051e-05 0)
(0.00440511 9.20149e-05 0)
(0.00439768 9.46068e-05 0)
(0.00438997 9.66477e-05 0)
(0.00438201 9.81056e-05 0)
(0.00437385 9.89493e-05 0)
(0.00436552 9.91503e-05 0)
(0.00435708 9.86789e-05 0)
(0.00434857 9.75201e-05 0)
(0.00409197 3.10711e-06 0)
(0.00446054 1.01223e-05 0)
(0.00447384 1.76828e-05 0)
(0.00447282 2.50078e-05 0)
(0.0044708 3.22793e-05 0)
(0.00446824 3.9405e-05 0)
(0.00446517 4.63678e-05 0)
(0.00446159 5.3133e-05 0)
(0.0044575 5.96685e-05 0)
(0.00445292 6.5941e-05 0)
(0.00444786 7.19171e-05 0)
(0.00444232 7.75621e-05 0)
(0.00443632 8.28413e-05 0)
(0.00442989 8.77189e-05 0)
(0.00442303 9.21588e-05 0)
(0.00441577 9.61245e-05 0)
(0.00440813 9.9579e-05 0)
(0.00440015 0.000102485 0)
(0.00439185 0.000104807 0)
(0.00438327 0.000106507 0)
(0.00437446 0.000107552 0)
(0.00436545 0.000107906 0)
(0.00435629 0.000107537 0)
(0.00434705 0.000106424 0)
(0.00409876 3.33252e-06 0)
(0.00446824 1.08596e-05 0)
(0.00448153 1.89749e-05 0)
(0.00448043 2.68402e-05 0)
(0.00447829 3.46529e-05 0)
(0.00447558 4.23148e-05 0)
(0.00447232 4.98089e-05 0)
(0.00446852 5.70991e-05 0)
(0.00446418 6.41519e-05 0)
(0.00445931 7.09326e-05 0)
(0.00445393 7.74058e-05 0)
(0.00444803 8.35353e-05 0)
(0.00444165 8.92838e-05 0)
(0.00443478 9.46133e-05 0)
(0.00442745 9.9485e-05 0)
(0.00441968 0.000103859 0)
(0.0044115 0.000107695 0)
(0.00440294 0.000110953 0)
(0.00439401 0.000113592 0)
(0.00438477 0.00011557 0)
(0.00437526 0.000116848 0)
(0.00436551 0.000117388 0)
(0.00435559 0.00011715 0)
(0.00434555 0.000116107 0)
(0.00410603 3.57076e-06 0)
(0.0044765 1.16393e-05 0)
(0.00448979 2.03417e-05 0)
(0.0044886 2.87792e-05 0)
(0.00448633 3.71655e-05 0)
(0.00448346 4.53966e-05 0)
(0.00448002 5.34555e-05 0)
(0.00447599 6.13049e-05 0)
(0.00447139 6.89098e-05 0)
(0.00446623 7.62344e-05 0)
(0.00446051 8.32414e-05 0)
(0.00445425 8.98927e-05 0)
(0.00444745 9.61489e-05 0)
(0.00444013 0.00010197 0)
(0.00443232 0.000107313 0)
(0.00442402 0.000112136 0)
(0.00441526 0.000116395 0)
(0.00440608 0.000120045 0)
(0.00439649 0.000123041 0)
(0.00438655 0.000125338 0)
(0.00437629 0.000126889 0)
(0.00436575 0.000127651 0)
(0.00435501 0.000127578 0)
(0.00434411 0.000126637 0)
(0.00411383 3.8221e-06 0)
(0.00448536 1.24622e-05 0)
(0.00449864 2.1785e-05 0)
(0.00449736 3.08274e-05 0)
(0.00449496 3.98207e-05 0)
(0.00449194 4.86549e-05 0)
(0.00448829 5.73133e-05 0)
(0.00448404 6.57573e-05 0)
(0.00447917 7.39509e-05 0)
(0.00447371 8.18567e-05 0)
(0.00446764 8.9436e-05 0)
(0.004461 9.66488e-05 0)
(0.00445377 0.000103454 0)
(0.00444599 0.000109807 0)
(0.00443766 0.000115665 0)
(0.00442881 0.000120981 0)
(0.00441945 0.000125708 0)
(0.00440961 0.000129796 0)
(0.00439933 0.000133196 0)
(0.00438864 0.000135856 0)
(0.00437759 0.000137725 0)
(0.00436621 0.000138752 0)
(0.00435458 0.000138885 0)
(0.00434274 0.000138083 0)
(0.00412217 4.08677e-06 0)
(0.00449484 1.33292e-05 0)
(0.00450812 2.33062e-05 0)
(0.00450674 3.2987e-05 0)
(0.00450422 4.26216e-05 0)
(0.00450103 5.20937e-05 0)
(0.00449719 6.13872e-05 0)
(0.0044927 7.04625e-05 0)
(0.00448756 7.92825e-05 0)
(0.00448178 8.78086e-05 0)
(0.00447537 9.60007e-05 0)
(0.00446832 0.000103817 0)
(0.00446066 0.000111213 0)
(0.0044524 0.000118145 0)
(0.00444354 0.000124564 0)
(0.00443411 0.000130421 0)
(0.00442412 0.000135665 0)
(0.0044136 0.000140242 0)
(0.00440258 0.000144096 0)
(0.0043911 0.000147171 0)
(0.0043792 0.000149409 0)
(0.00436693 0.000150752 0)
(0.00435434 0.000151139 0)
(0.0043415 0.000150521 0)
(0.00413109 4.3649e-06 0)
(0.00450497 1.42409e-05 0)
(0.00451826 2.49066e-05 0)
(0.00451679 3.52596e-05 0)
(0.00451414 4.55703e-05 0)
(0.00451078 5.57159e-05 0)
(0.00450674 6.56812e-05 0)