/*--------------------------------*- C++ -*----------------------------------*\
| =========                 |                                                 |
| \\      /  F ield         | foam-extend: Open Source CFD                    |
|  \\    /   O peration     | Version:  3.0                                   |
|   \\  /    A nd           | Web:         http://www.extend-project.de       |
|    \\/     M anipulation  |                                                 |
\*---------------------------------------------------------------------------*/
FoamFile
{
    version     2.0;
    format      ascii;
    class       volVectorField;
    location    "0.005";
    object      U_0;
}
// * * * * * * * * * * * * * * * * * * * * * * * * * * * * * * * * * * * * * //

dimensions      [0 1 -1 0 0 0 0];

internalField   nonuniform List<vector> 
10470
(
(0.00283534 7.76043e-08 0)
(0.00306499 2.4736e-07 0)
(0.00307303 4.26109e-07 0)
(0.00307323 5.97533e-07 0)
(0.00307316 7.6341e-07 0)
(0.00307306 9.21052e-07 0)
(0.00307294 1.06888e-06 0)
(0.0030728 1.20518e-06 0)
(0.00307265 1.32835e-06 0)
(0.00307248 1.43686e-06 0)
(0.00307229 1.52927e-06 0)
(0.00307209 1.60424e-06 0)
(0.00307188 1.66056e-06 0)
(0.00307166 1.69711e-06 0)
(0.00307144 1.7129e-06 0)
(0.0030712 1.7071e-06 0)
(0.00307096 1.67899e-06 0)
(0.00307072 1.62802e-06 0)
(0.00307047 1.55376e-06 0)
(0.00307023 1.45601e-06 0)
(0.00306999 1.33458e-06 0)
(0.00306975 1.19016e-06 0)
(0.00306952 1.0207e-06 0)
(0.0030693 8.36632e-07 0)
(0.00283551 8.70743e-08 0)
(0.00306518 2.77675e-07 0)
(0.00307322 4.78521e-07 0)
(0.00307341 6.7129e-07 0)
(0.00307333 8.58087e-07 0)
(0.00307322 1.03595e-06 0)
(0.00307309 1.20317e-06 0)
(0.00307294 1.35789e-06 0)
(0.00307277 1.49837e-06 0)
(0.00307258 1.62295e-06 0)
(0.00307238 1.73005e-06 0)
(0.00307217 1.81824e-06 0)
(0.00307194 1.88618e-06 0)
(0.00307169 1.93265e-06 0)
(0.00307144 1.95659e-06 0)
(0.00307119 1.95706e-06 0)
(0.00307092 1.93329e-06 0)
(0.00307065 1.88466e-06 0)
(0.00307038 1.81072e-06 0)
(0.00307012 1.71122e-06 0)
(0.00306985 1.58592e-06 0)
(0.00306959 1.4356e-06 0)
(0.00306934 1.25776e-06 0)
(0.00306909 1.06305e-06 0)
(0.0028357 9.73975e-08 0)
(0.00306539 3.10767e-07 0)
(0.00307343 5.35782e-07 0)
(0.00307361 7.5189e-07 0)
(0.00307352 9.61564e-07 0)
(0.0030734 1.16154e-06 0)
(0.00307326 1.34999e-06 0)
(0.0030731 1.5249e-06 0)
(0.00307291 1.68436e-06 0)
(0.00307271 1.82658e-06 0)
(0.00307249 1.94985e-06 0)
(0.00307225 2.0526e-06 0)
(0.003072 2.13337e-06 0)
(0.00307173 2.19084e-06 0)
(0.00307146 2.22385e-06 0)
(0.00307118 2.23137e-06 0)
(0.00307089 2.21256e-06 0)
(0.00307059 2.16673e-06 0)
(0.0030703 2.09339e-06 0)
(0.00307 1.99223e-06 0)
(0.00306971 1.86298e-06 0)
(0.00306942 1.70642e-06 0)
(0.00306914 1.51987e-06 0)
(0.00306887 1.31398e-06 0)
(0.00283592 1.08658e-07 0)
(0.00306562 3.46886e-07 0)
(0.00307366 5.983e-07 0)
(0.00307384 8.399e-07 0)
(0.00307374 1.07458e-06 0)
(0.00307361 1.29874e-06 0)
(0.00307345 1.51041e-06 0)
(0.00307327 1.70741e-06 0)
(0.00307307 1.88767e-06 0)
(0.00307285 2.04924e-06 0)
(0.00307261 2.19027e-06 0)
(0.00307235 2.30904e-06 0)
(0.00307207 2.40397e-06 0)
(0.00307179 2.47362e-06 0)
(0.00307148 2.51672e-06 0)
(0.00307117 2.53215e-06 0)
(0.00307086 2.51898e-06 0)
(0.00307053 2.47645e-06 0)
(0.00307021 2.40401e-06 0)
(0.00306989 2.30131e-06 0)
(0.00306956 2.16805e-06 0)
(0.00306925 2.00499e-06 0)
(0.00306894 1.80939e-06 0)
(0.00306864 1.59193e-06 0)
(0.00283615 1.20938e-07 0)
(0.00306589 3.86285e-07 0)
(0.00307392 6.66511e-07 0)
(0.00307409 9.35941e-07 0)
(0.00307398 1.19792e-06 0)
(0.00307384 1.4485e-06 0)
(0.00307367 1.68556e-06 0)
(0.00307348 1.90672e-06 0)
(0.00307326 2.10975e-06 0)
(0.00307301 2.29253e-06 0)
(0.00307275 2.45305e-06 0)
(0.00307246 2.58944e-06 0)
(0.00307216 2.69997e-06 0)
(0.00307185 2.78309e-06 0)
(0.00307152 2.8374e-06 0)
(0.00307118 2.86167e-06 0)
(0.00307083 2.85489e-06 0)
(0.00307048 2.81623e-06 0)
(0.00307012 2.74506e-06 0)
(0.00306977 2.64098e-06 0)
(0.00306941 2.50367e-06 0)
(0.00306906 2.33386e-06 0)
(0.00306872 2.12881e-06 0)
(0.0030684 1.89922e-06 0)
(0.00283642 1.34323e-07 0)
(0.00306618 4.2924e-07 0)
(0.00307421 7.40892e-07 0)
(0.00307437 1.04068e-06 0)
(0.00307425 1.33245e-06 0)
(0.0030741 1.61187e-06 0)
(0.00307391 1.87666e-06 0)
(0.0030737 2.12424e-06 0)
(0.00307346 2.35218e-06 0)
(0.0030732 2.55818e-06 0)
(0.00307291 2.74007e-06 0)
(0.0030726 2.89581e-06 0)
(0.00307227 3.02353e-06 0)
(0.00307192 3.12152e-06 0)
(0.00307156 3.18825e-06 0)
(0.00307119 3.22241e-06 0)
(0.00307081 3.22285e-06 0)
(0.00307042 3.18867e-06 0)
(0.00307003 3.11918e-06 0)
(0.00306964 3.01392e-06 0)
(0.00306925 2.87253e-06 0)
(0.00306887 2.69573e-06 0)
(0.0030685 2.48078e-06 0)
(0.00306814 2.2384e-06 0)
(0.00283671 1.48906e-07 0)
(0.00306651 4.76045e-07 0)
(0.00307453 8.21948e-07 0)
(0.00307468 1.15483e-06 0)
(0.00307456 1.47909e-06 0)
(0.00307439 1.78999e-06 0)
(0.00307418 2.08504e-06 0)
(0.00307395 2.36147e-06 0)
(0.00307369 2.61664e-06 0)
(0.0030734 2.84807e-06 0)
(0.00307309 3.05337e-06 0)
(0.00307275 3.23035e-06 0)
(0.00307239 3.37697e-06 0)
(0.00307201 3.49136e-06 0)
(0.00307162 3.57186e-06 0)
(0.00307121 3.61702e-06 0)
(0.0030708 3.62561e-06 0)
(0.00307037 3.59661e-06 0)
(0.00306995 3.52926e-06 0)
(0.00306952 3.42305e-06 0)
(0.00306909 3.27758e-06 0)
(0.00306867 3.09354e-06 0)
(0.00306826 2.86821e-06 0)
(0.00306786 2.6123e-06 0)
(0.00283704 1.64783e-07 0)
(0.00306687 5.27015e-07 0)
(0.00307489 9.10232e-07 0)
(0.00307503 1.27918e-06 0)
(0.00307489 1.63885e-06 0)
(0.00307471 1.98406e-06 0)
(0.00307449 2.31213e-06 0)
(0.00307423 2.62005e-06 0)
(0.00307395 2.90498e-06 0)
(0.00307363 3.1642e-06 0)
(0.00307329 3.39514e-06 0)
(0.00307292 3.59542e-06 0)
(0.00307253 3.76279e-06 0)
(0.00307212 3.89526e-06 0)
(0.00307169 3.99099e-06 0)
(0.00307125 4.0484e-06 0)
(0.00307079 4.06614e-06 0)
(0.00307033 4.0431e-06 0)
(0.00306986 3.97841e-06 0)
(0.00306939 3.87152e-06 0)
(0.00306892 3.72197e-06 0)
(0.00306846 3.53045e-06 0)
(0.00306801 3.29422e-06 0)
(0.00306757 3.02402e-06 0)
(0.0028374 1.82062e-07 0)
(0.00306727 5.82491e-07 0)
(0.00307528 1.00633e-06 0)
(0.00307542 1.41455e-06 0)
(0.00307526 1.81279e-06 0)
(0.00307506 2.19538e-06 0)
(0.00307482 2.55946e-06 0)
(0.00307455 2.90174e-06 0)
(0.00307424 3.21915e-06 0)
(0.00307389 3.50874e-06 0)
(0.00307352 3.76774e-06 0)
(0.00307312 3.99354e-06 0)
(0.00307269 4.18372e-06 0)
(0.00307224 4.33608e-06 0)
(0.00307177 4.44864e-06 0)
(0.00307129 4.51967e-06 0)
(0.00307079 4.54767e-06 0)
(0.00307029 4.53143e-06 0)
(0.00306977 4.47e-06 0)
(0.00306926 4.36274e-06 0)
(0.00306875 4.20915e-06 0)
(0.00306824 4.00989e-06 0)
(0.00306775 3.76223e-06 0)
(0.00306727 3.4769e-06 0)
(0.0028378 2.00855e-07 0)
(0.00306771 6.42838e-07 0)
(0.00307572 1.11088e-06 0)
(0.00307584 1.56183e-06 0)
(0.00307567 2.00207e-06 0)
(0.00307546 2.42538e-06 0)
(0.0030752 2.82868e-06 0)
(0.0030749 3.20842e-06 0)
(0.00307456 3.56127e-06 0)
(0.00307419 3.88404e-06 0)
(0.00307378 4.17372e-06 0)
(0.00307334 4.42746e-06 0)
(0.00307288 4.64266e-06 0)
(0.00307239 4.81691e-06 0)
(0.00307187 4.94804e-06 0)
(0.00307135 5.03417e-06 0)
(0.0030708 5.07367e-06 0)
(0.00307025 5.06518e-06 0)
(0.00306969 5.00766e-06 0)
(0.00306913 4.9004e-06 0)
(0.00306857 4.74283e-06 0)
(0.00306801 4.53558e-06 0)
(0.00306747 4.27593e-06 0)
(0.00306694 3.97461e-06 0)
(0.00283823 2.21285e-07 0)
(0.00306819 7.08448e-07 0)
(0.0030762 1.22456e-06 0)
(0.00307631 1.722e-06 0)
(0.00307613 2.20792e-06 0)
(0.00307589 2.67556e-06 0)
(0.00307561 3.12157e-06 0)
(0.00307528 3.54213e-06 0)
(0.00307492 3.93363e-06 0)
(0.00307451 4.29261e-06 0)
(0.00307407 4.61581e-06 0)
(0.00307359 4.90014e-06 0)
(0.00307308 5.14277e-06 0)
(0.00307255 5.34107e-06 0)
(0.00307199 5.49269e-06 0)
(0.00307142 5.59556e-06 0)
(0.00307082 5.64789e-06 0)
(0.00307022 5.64821e-06 0)
(0.00306961 5.59534e-06 0)
(0.00306899 5.48849e-06 0)
(0.00306838 5.32703e-06 0)
(0.00306778 5.11155e-06 0)
(0.00306718 4.83933e-06 0)
(0.0030666 4.52109e-06 0)
(0.00283872 2.43481e-07 0)
(0.00306873 7.79745e-07 0)
(0.00307673 1.3481e-06 0)
(0.00307683 1.89608e-06 0)
(0.00307663 2.43169e-06 0)
(0.00307637 2.94753e-06 0)
(0.00307607 3.44004e-06 0)
(0.00307571 3.90505e-06 0)
(0.00307531 4.33867e-06 0)
(0.00307487 4.73716e-06 0)
(0.00307439 5.09697e-06 0)
(0.00307387 5.41475e-06 0)
(0.00307332 5.68743e-06 0)
(0.00307274 5.91215e-06 0)
(0.00307213 6.08634e-06 0)
(0.0030715 6.20775e-06 0)
(0.00307086 6.27441e-06 0)
(0.0030702 6.28468e-06 0)
(0.00306953 6.2373e-06 0)
(0.00306886 6.13134e-06 0)
(0.00306819 5.96612e-06 0)
(0.00306753 5.74218e-06 0)
(0.00306687 5.45679e-06 0)
(0.00306624 5.12066e-06 0)
(0.00283925 2.67587e-07 0)
(0.00306932 8.57177e-07 0)
(0.00307731 1.4823e-06 0)
(0.0030774 2.08518e-06 0)
(0.00307719 2.67479e-06 0)
(0.00307691 3.24305e-06 0)
(0.00307657 3.78613e-06 0)
(0.00307619 4.29953e-06 0)
(0.00307575 4.77904e-06 0)
(0.00307527 5.2206e-06 0)
(0.00307475 5.62036e-06 0)
(0.00307418 5.97472e-06 0)
(0.00307358 6.2803e-06 0)
(0.00307295 6.53401e-06 0)
(0.00307229 6.73307e-06 0)
(0.0030716 6.87497e-06 0)
(0.0030709 6.95759e-06 0)
(0.00307018 6.97912e-06 0)
(0.00306945 6.93814e-06 0)
(0.00306872 6.83363e-06 0)
(0.00306799 6.66483e-06 0)
(0.00306727 6.4322e-06 0)
(0.00306655 6.13303e-06 0)
(0.00306586 5.77799e-06 0)
(0.00283983 2.9375e-07 0)
(0.00306997 9.41233e-07 0)
(0.00307796 1.62798e-06 0)
(0.00307803 2.29049e-06 0)
(0.00307779 2.93876e-06 0)
(0.00307749 3.56399e-06 0)
(0.00307713 4.16205e-06 0)
(0.00307671 4.7281e-06 0)
(0.00307624 5.25756e-06 0)
(0.00307572 5.74605e-06 0)
(0.00307515 6.18941e-06 0)
(0.00307453 6.58372e-06 0)
(0.00307388 6.92531e-06 0)
(0.00307319 7.21084e-06 0)
(0.00307247 7.43723e-06 0)
(0.00307173 7.6018e-06 0)
(0.00307096 7.70217e-06 0)
(0.00307018 7.73638e-06 0)
(0.00306938 7.70284e-06 0)
(0.00306858 7.60043e-06 0)
(0.00306779 7.42825e-06 0)
(0.00306699 7.18675e-06 0)
(0.00306621 6.87316e-06 0)
(0.00306545 6.49815e-06 0)
(0.00284047 3.22132e-07 0)
(0.00307068 1.03243e-06 0)
(0.00307866 1.78605e-06 0)
(0.00307872 2.51328e-06 0)
(0.00307846 3.22524e-06 0)
(0.00307813 3.91234e-06 0)
(0.00307774 4.57016e-06 0)
(0.00307729 5.19345e-06 0)
(0.00307677 5.77727e-06 0)
(0.00307621 6.31688e-06 0)
(0.00307559 6.80778e-06 0)
(0.00307492 7.24571e-06 0)
(0.00307421 7.6267e-06 0)
(0.00307346 7.94709e-06 0)
(0.00307268 8.20356e-06 0)
(0.00307187 8.39315e-06 0)
(0.00307104 8.51326e-06 0)
(0.00307018 8.56173e-06 0)
(0.00306932 8.5368e-06 0)
(0.00306845 8.4372e-06 0)
(0.00306758 8.26195e-06 0)
(0.00306671 8.01139e-06 0)
(0.00306586 7.68275e-06 0)
(0.00306502 7.28666e-06 0)
(0.00284118 3.52906e-07 0)
(0.00307146 1.13132e-06 0)
(0.00307944 1.95748e-06 0)
(0.00307948 2.75491e-06 0)
(0.0030792 3.53598e-06 0)
(0.00307884 4.29026e-06 0)
(0.00307841 5.01298e-06 0)
(0.00307792 5.69847e-06 0)
(0.00307737 6.34142e-06 0)
(0.00307675 6.93669e-06 0)
(0.00307608 7.47941e-06 0)
(0.00307536 7.96495e-06 0)
(0.00307458 8.38901e-06 0)
(0.00307377 8.74762e-06 0)
(0.00307292 9.03714e-06 0)
(0.00307204 9.25433e-06 0)
(0.00307113 9.39637e-06 0)
(0.0030702 9.46085e-06 0)
(0.00306926 9.44584e-06 0)
(0.00306831 9.34989e-06 0)
(0.00306736 9.17192e-06 0)
(0.00306641 8.91216e-06 0)
(0.00306548 8.56784e-06 0)
(0.00306457 8.14951e-06 0)
(0.00284195 3.86254e-07 0)
(0.00307232 1.23849e-06 0)
(0.00308028 2.14329e-06 0)
(0.00308031 3.01685e-06 0)
(0.00308001 3.87288e-06 0)
(0.00307962 4.70004e-06 0)
(0.00307915 5.49321e-06 0)
(0.00307862 6.24629e-06 0)
(0.00307802 6.95352e-06 0)
(0.00307735 7.60936e-06 0)
(0.00307662 8.20852e-06 0)
(0.00307584 8.74601e-06 0)
(0.003075 9.21714e-06 0)
(0.00307412 9.6176e-06 0)
(0.00307319 9.94342e-06 0)
(0.00307223 1.01911e-05 0)
(0.00307124 1.03574e-05 0)
(0.00307023 1.04399e-05 0)
(0.00306921 1.04362e-05 0)
(0.00306817 1.03449e-05 0)
(0.00306714 1.01646e-05 0)
(0.0030661 9.89561e-06 0)
(0.00306509 9.53495e-06 0)
(0.00306409 9.0932e-06 0)
(0.00284279 4.22373e-07 0)
(0.00307325 1.35459e-06 0)
(0.00308121 2.34459e-06 0)
(0.00308122 3.30064e-06 0)
(0.00308089 4.23793e-06 0)
(0.00308047 5.14413e-06 0)
(0.00307997 6.01376e-06 0)
(0.00307939 6.84022e-06 0)
(0.00307873 7.6173e-06 0)
(0.00307801 8.33901e-06 0)
(0.00307722 8.99964e-06 0)
(0.00307637 9.59378e-06 0)
(0.00307546 1.01163e-05 0)
(0.0030745 1.05626e-05 0)
(0.0030735 1.09283e-05 0)
(0.00307245 1.12095e-05 0)
(0.00307138 1.14029e-05 0)
(0.00307028 1.15054e-05 0)
(0.00306916 1.15148e-05 0)
(0.00306804 1.14292e-05 0)
(0.00306691 1.12472e-05 0)
(0.00306578 1.09688e-05 0)
(0.00306467 1.05912e-05 0)
(0.00306358 1.01248e-05 0)
(0.00284371 4.61473e-07 0)
(0.00307428 1.48028e-06 0)
(0.00308223 2.56254e-06 0)
(0.00308221 3.60795e-06 0)
(0.00308186 4.63328e-06 0)
(0.0030814 5.62516e-06 0)
(0.00308086 6.5777e-06 0)
(0.00308023 7.4838e-06 0)
(0.00307952 8.33675e-06 0)
(0.00307874 9.13009e-06 0)
(0.00307788 9.85764e-06 0)
(0.00307696 1.05135e-05 0)
(0.00307597 1.10922e-05 0)
(0.00307493 1.15887e-05 0)
(0.00307384 1.19981e-05 0)
(0.00307271 1.23163e-05 0)
(0.00307154 1.25396e-05 0)
(0.00307035 1.26646e-05 0)
(0.00306913 1.26889e-05 0)
(0.0030679 1.26102e-05 0)
(0.00306667 1.24271e-05 0)
(0.00306545 1.21395e-05 0)
(0.00306424 1.17443e-05 0)
(0.00306305 1.1252e-05 0)
(0.00284471 5.03774e-07 0)
(0.0030754 1.61628e-06 0)
(0.00308334 2.7984e-06 0)
(0.0030833 3.94053e-06 0)
(0.00308291 5.06121e-06 0)
(0.00308242 6.14592e-06 0)
(0.00308183 7.18835e-06 0)
(0.00308115 8.18084e-06 0)
(0.00308039 9.11616e-06 0)
(0.00307954 9.98734e-06 0)
(0.00307861 1.07877e-05 0)
(0.00307761 1.15109e-05 0)
(0.00307654 1.21509e-05 0)
(0.00307541 1.27022e-05 0)
(0.00307423 1.31596e-05 0)
(0.003073 1.35186e-05 0)
(0.00307173 1.3775e-05 0)
(0.00307043 1.39252e-05 0)
(0.00306911 1.39664e-05 0)
(0.00306777 1.38961e-05 0)
(0.00306643 1.37127e-05 0)
(0.0030651 1.34159e-05 0)
(0.00306378 1.30026e-05 0)
(0.00306248 1.2483e-05 0)
(0.00284581 5.49516e-07 0)
(0.00307662 1.76335e-06 0)
(0.00308455 3.05349e-06 0)
(0.00308449 4.30029e-06 0)
(0.00308407 5.52416e-06 0)
(0.00308354 6.70939e-06 0)
(0.0030829 7.84921e-06 0)
(0.00308217 8.93537e-06 0)
(0.00308134 9.96008e-06 0)
(0.00308042 1.09158e-05 0)
(0.00307941 1.17954e-05 0)
(0.00307833 1.25918e-05 0)
(0.00307717 1.32988e-05 0)
(0.00307594 1.39101e-05 0)
(0.00307466 1.44202e-05 0)
(0.00307333 1.4824e-05 0)
(0.00307195 1.51171e-05 0)
(0.00307054 1.52955e-05 0)
(0.0030691 1.53558e-05 0)
(0.00306765 1.52957e-05 0)
(0.00306619 1.51129e-05 0)
(0.00306474 1.48071e-05 0)
(0.0030633 1.43752e-05 0)
(0.00306188 1.38271e-05 0)
(0.00284701 5.98948e-07 0)
(0.00307795 1.92232e-06 0)
(0.00308587 3.32924e-06 0)
(0.00308579 4.68921e-06 0)
(0.00308533 6.02472e-06 0)
(0.00308476 7.31874e-06 0)
(0.00308407 8.56402e-06 0)
(0.00308327 9.7517e-06 0)
(0.00308238 1.08734e-05 0)
(0.00308138 1.19209e-05 0)
(0.00308029 1.28866e-05 0)
(0.00307912 1.37629e-05 0)
(0.00307786 1.45428e-05 0)
(0.00307654 1.52197e-05 0)
(0.00307515 1.57876e-05 0)
(0.0030737 1.62408e-05 0)
(0.0030722 1.65745e-05 0)
(0.00307067 1.67843e-05 0)
(0.00306911 1.68665e-05 0)
(0.00306753 1.68183e-05 0)
(0.00306594 1.66374e-05 0)
(0.00306436 1.6323e-05 0)
(0.00306279 1.58719e-05 0)
(0.00306124 1.5294e-05 0)
(0.00284831 6.52337e-07 0)
(0.0030794 2.09403e-06 0)
(0.00308731 3.62713e-06 0)
(0.0030872 5.10942e-06 0)
(0.00308671 6.56563e-06 0)
(0.00308609 7.97733e-06 0)
(0.00308535 9.33677e-06 0)
(0.00308449 1.06344e-05 0)
(0.00308352 1.18612e-05 0)
(0.00308244 1.30085e-05 0)
(0.00308126 1.40677e-05 0)
(0.00307999 1.50309e-05 0)
(0.00307863 1.58904e-05 0)
(0.00307719 1.66391e-05 0)
(0.00307569 1.72702e-05 0)
(0.00307412 1.77779e-05 0)
(0.0030725 1.81565e-05 0)
(0.00307083 1.84014e-05 0)
(0.00306914 1.85084e-05 0)
(0.00306742 1.84743e-05 0)
(0.00306569 1.82965e-05 0)
(0.00306397 1.7974e-05 0)
(0.00306226 1.75034e-05 0)
(0.00306057 1.68944e-05 0)
(0.00284973 7.09965e-07 0)
(0.00308099 2.2794e-06 0)
(0.00308888 3.94877e-06 0)
(0.00308874 5.56317e-06 0)
(0.00308821 7.1498e-06 0)
(0.00308754 8.68873e-06 0)
(0.00308674 1.01717e-05 0)
(0.00308581 1.15884e-05 0)
(0.00308476 1.29291e-05 0)
(0.0030836 1.41845e-05 0)
(0.00308232 1.53454e-05 0)
(0.00308095 1.64032e-05 0)
(0.00307948 1.73495e-05 0)
(0.00307792 1.81765e-05 0)
(0.00307629 1.88771e-05 0)
(0.00307459 1.94446e-05 0)
(0.00307283 1.9873e-05 0)
(0.00307102 2.0157e-05 0)
(0.00306918 2.02921e-05 0)
(0.00306732 2.02746e-05 0)
(0.00306544 2.01015e-05 0)
(0.00306356 1.97716e-05 0)
(0.0030617 1.92813e-05 0)
(0.00305987 1.864e-05 0)
(0.00285128 7.72129e-07 0)
(0.00308271 2.47939e-06 0)
(0.00309059 4.29581e-06 0)
(0.00309042 6.05283e-06 0)
(0.00308985 7.78031e-06 0)
(0.00308912 9.45672e-06 0)
(0.00308826 1.10732e-05 0)
(0.00308726 1.26187e-05 0)
(0.00308612 1.40829e-05 0)
(0.00308487 1.54556e-05 0)
(0.00308349 1.6727e-05 0)
(0.003082 1.78876e-05 0)
(0.00308041 1.89285e-05 0)
(0.00307873 1.98412e-05 0)
(0.00307696 2.06179e-05 0)
(0.00307512 2.12513e-05 0)
(0.00307321 2.17347e-05 0)
(0.00307125 2.20624e-05 0)
(0.00306925 2.22293e-05 0)
(0.00306723 2.22312e-05 0)
(0.00306519 2.20647e-05 0)
(0.00306315 2.17283e-05 0)
(0.00306112 2.12181e-05 0)
(0.00305912 2.05433e-05 0)
(0.00285295 8.39142e-07 0)
(0.00308458 2.69501e-06 0)
(0.00309245 4.67003e-06 0)
(0.00309225 6.58091e-06 0)
(0.00309163 8.46041e-06 0)
(0.00309085 1.02853e-05 0)
(0.00308991 1.20461e-05 0)
(0.00308883 1.3731e-05 0)
(0.00308761 1.53288e-05 0)
(0.00308625 1.68286e-05 0)
(0.00308477 1.82199e-05 0)
(0.00308316 1.94924e-05 0)
(0.00308144 2.06364e-05 0)
(0.00307962 2.16427e-05 0)
(0.00307771 2.25028e-05 0)
(0.00307571 2.32087e-05 0)
(0.00307364 2.37531e-05 0)
(0.00307152 2.41295e-05 0)
(0.00306935 2.43323e-05 0)
(0.00306715 2.43569e-05 0)
(0.00306494 2.41993e-05 0)
(0.00306272 2.38576e-05 0)
(0.00306051 2.33276e-05 0)
(0.00305833 2.26182e-05 0)
(0.00285478 9.11335e-07 0)
(0.00308662 2.92733e-06 0)
(0.00309448 5.07329e-06 0)
(0.00309423 7.15004e-06 0)
(0.00309357 9.19352e-06 0)
(0.00309272 1.11786e-05 0)
(0.00309172 1.30953e-05 0)
(0.00309055 1.49308e-05 0)
(0.00308923 1.66733e-05 0)
(0.00308777 1.83109e-05 0)
(0.00308616 1.98323e-05 0)
(0.00308443 2.12264e-05 0)
(0.00308257 2.24828e-05 0)
(0.0030806 2.35914e-05 0)
(0.00307853 2.45429e-05 0)
(0.00307637 2.53285e-05 0)
(0.00307414 2.59404e-05 0)
(0.00307183 2.63711e-05 0)
(0.00306948 2.66146e-05 0)
(0.0030671 2.66655e-05 0)
(0.00306469 2.65195e-05 0)
(0.00306227 2.6174e-05 0)
(0.00305987 2.56245e-05 0)
(0.0030575 2.48796e-05 0)
(0.00285676 9.89051e-07 0)
(0.00308883 3.17747e-06 0)
(0.00309667 5.50754e-06 0)
(0.00309639 7.76301e-06 0)
(0.00309567 9.98323e-06 0)
(0.00309477 1.21411e-05 0)
(0.00309368 1.42261e-05 0)
(0.00309243 1.62244e-05 0)
(0.00309101 1.81233e-05 0)
(0.00308943 1.99102e-05 0)
(0.00308769 2.15727e-05 0)
(0.00308582 2.3099e-05 0)
(0.00308382 2.44778e-05 0)
(0.00308169 2.56981e-05 0)
(0.00307945 2.67498e-05 0)
(0.00307711 2.76232e-05 0)
(0.00307469 2.83097e-05 0)
(0.0030722 2.88011e-05 0)
(0.00306965 2.90906e-05 0)
(0.00306706 2.91721e-05 0)
(0.00306444 2.90407e-05 0)
(0.00306182 2.86933e-05 0)
(0.0030592 2.8125e-05 0)
(0.00305662 2.73437e-05 0)
(0.00285891 1.07265e-06 0)
(0.00309123 3.44659e-06 0)
(0.00309906 5.97482e-06 0)
(0.00309874 8.4227e-06 0)
(0.00309796 1.08333e-05 0)
(0.00309699 1.31775e-05 0)
(0.00309582 1.54439e-05 0)
(0.00309447 1.76181e-05 0)
(0.00309294 1.96861e-05 0)
(0.00309123 2.16346e-05 0)
(0.00308937 2.34502e-05 0)
(0.00308735 2.51202e-05 0)
(0.00308518 2.66322e-05 0)
(0.00308289 2.79745e-05 0)
(0.00308047 2.9136e-05 0)
(0.00307794 3.0106e-05 0)
(0.00307532 3.0875e-05 0)
(0.00307262 3.14342e-05 0)
(0.00306986 3.17757e-05 0)
(0.00306705 3.18927e-05 0)
(0.00306421 3.17796e-05 0)
(0.00306136 3.14326e-05 0)
(0.00305851 3.08464e-05 0)
(0.0030557 3.00283e-05 0)
(0.00286124 1.16251e-06 0)
(0.00309383 3.73592e-06 0)
(0.00310164 6.47726e-06 0)
(0.00310128 9.13215e-06 0)
(0.00310045 1.17477e-05 0)
(0.0030994 1.42925e-05 0)
(0.00309814 1.67546e-05 0)
(0.00309669 1.91185e-05 0)
(0.00309504 2.13693e-05 0)
(0.00309321 2.34926e-05 0)
(0.0030912 2.54742e-05 0)
(0.00308902 2.73002e-05 0)
(0.00308668 2.89574e-05 0)
(0.0030842 3.04329e-05 0)
(0.00308159 3.17146e-05 0)
(0.00307886 3.27911e-05 0)
(0.00307603 3.36515e-05 0)
(0.0030731 3.42862e-05 0)
(0.00307011 3.46864e-05 0)
(0.00306706 3.48445e-05 0)
(0.00306398 3.4754e-05 0)
(0.00306088 3.44104e-05 0)
(0.00305779 3.38077e-05 0)
(0.00305473 3.29526e-05 0)
(0.00286377 1.25902e-06 0)
(0.00309665 4.04672e-06 0)
(0.00310445 7.01707e-06 0)
(0.00310404 9.8945e-06 0)
(0.00310314 1.27305e-05 0)
(0.00310201 1.54913e-05 0)
(0.00310067 1.81642e-05 0)
(0.0030991 2.07327e-05 0)
(0.00309733 2.3181e-05 0)
(0.00309536 2.54934e-05 0)
(0.00309319 2.76548e-05 0)
(0.00309085 2.96503e-05 0)
(0.00308833 3.14654e-05 0)
(0.00308566 3.30864e-05 0)
(0.00308284 3.44999e-05 0)
(0.00307989 3.56933e-05 0)
(0.00307682 3.6655e-05 0)
(0.00307366 3.73741e-05 0)
(0.00307042 3.78407e-05 0)
(0.00306711 3.80463e-05 0)
(0.00306377 3.79834e-05 0)
(0.00306041 3.76466e-05 0)
(0.00305704 3.70294e-05 0)
(0.00305371 3.61374e-05 0)
(0.0028665 1.36259e-06 0)
(0.0030997 4.38029e-06 0)
(0.00310748 7.59656e-06 0)
(0.00310703 1.0713e-05 0)
(0.00310606 1.37859e-05 0)
(0.00310485 1.67791e-05 0)
(0.00310341 1.9679e-05 0)
(0.00310173 2.2468e-05 0)
(0.00309982 2.51293e-05 0)
(0.0030977 2.76462e-05 0)
(0.00309537 3.00023e-05 0)
(0.00309285 3.21818e-05 0)
(0.00309013 3.41689e-05 0)
(0.00308725 3.59486e-05 0)
(0.00308421 3.75065e-05 0)
(0.00308103 3.88288e-05 0)
(0.00307772 3.99026e-05 0)
(0.0030743 4.07158e-05 0)
(0.00307079 4.12575e-05 0)
(0.00306721 4.15179e-05 0)
(0.00306358 4.14885e-05 0)
(0.00305993 4.11629e-05 0)
(0.00305627 4.05337e-05 0)
(0.00305264 3.96056e-05 0)
(0.00286946 1.47362e-06 0)
(0.00310301 4.73799e-06 0)
(0.00311077 8.21807e-06 0)
(0.00311026 1.15911e-05 0)
(0.00310923 1.49184e-05 0)
(0.00310793 1.81612e-05 0)
(0.00310638 2.13053e-05 0)
(0.00310458 2.43319e-05 0)
(0.00310253 2.7223e-05 0)
(0.00310025 2.99608e-05 0)
(0.00309775 3.25278e-05 0)
(0.00309503 3.49069e-05 0)
(0.00309211 3.70811e-05 0)
(0.00308901 3.90341e-05 0)
(0.00308573 4.07502e-05 0)
(0.00308229 4.22144e-05 0)
(0.00307872 4.34124e-05 0)
(0.00307502 4.43307e-05 0)
(0.00307122 4.49572e-05 0)
(0.00306735 4.52808e-05 0)
(0.00306342 4.52918e-05 0)
(0.00305945 4.49826e-05 0)
(0.00305548 4.43448e-05 0)
(0.00305153 4.3382e-05 0)
(0.00287266 1.59254e-06 0)
(0.00310658 5.1212e-06 0)
(0.00311433 8.88404e-06 0)
(0.00311376 1.25321e-05 0)
(0.00311266 1.61324e-05 0)
(0.00311127 1.96434e-05 0)
(0.0031096 2.30499e-05 0)
(0.00310767 2.63322e-05 0)
(0.00310547 2.9471e-05 0)
(0.00310303 3.24474e-05 0)
(0.00310034 3.52426e-05 0)
(0.00309742 3.78382e-05 0)
(0.00309428 4.02158e-05 0)
(0.00309094 4.2358e-05 0)
(0.00308741 4.42476e-05 0)
(0.0030837 4.58679e-05 0)
(0.00307984 4.72034e-05 0)
(0.00307585 4.82392e-05 0)
(0.00307174 4.89615e-05 0)
(0.00306754 4.9358e-05 0)
(0.00306328 4.94175e-05 0)
(0.00305898 4.9131e-05 0)
(0.00305466 4.84888e-05 0)
(0.00305036 4.74934e-05 0)
(0.00287612 1.7198e-06 0)
(0.00311045 5.53133e-06 0)
(0.00311817 9.59694e-06 0)
(0.00311755 1.35397e-05 0)
(0.00311637 1.74326e-05 0)
(0.00311488 2.12312e-05 0)
(0.0031131 2.49197e-05 0)
(0.00311102 2.8477e-05 0)
(0.00310867 3.18827e-05 0)
(0.00310605 3.51166e-05 0)
(0.00310316 3.81585e-05 0)
(0.00310003 4.09888e-05 0)
(0.00309665 4.35878e-05 0)
(0.00309306 4.59363e-05 0)
(0.00308926 4.80158e-05 0)
(0.00308526 4.98081e-05 0)
(0.0030811 5.1296e-05 0)
(0.00307679 5.2463e-05 0)
(0.00307235 5.32937e-05 0)
(0.00306781 5.37741e-05 0)
(0.00306319 5.38914e-05 0)
(0.00305852 5.36351e-05 0)
(0.00305383 5.2994e-05 0)
(0.00304916 5.19691e-05 0)
(0.00287985 1.85581e-06 0)
(0.00311462 5.96982e-06 0)
(0.00312233 1.03593e-05 0)
(0.00312165 1.46174e-05 0)
(0.00312038 1.88237e-05 0)
(0.00311879 2.29307e-05 0)
(0.00311688 2.69217e-05 0)
(0.00311466 3.07745e-05 0)
(0.00311214 3.44674e-05 0)
(0.00310933 3.7979e-05 0)
(0.00310624 4.12877e-05 0)
(0.00310287 4.43723e-05 0)
(0.00309925 4.72118e-05 0)
(0.00309539 4.97855e-05 0)
(0.00309129 5.20731e-05 0)
(0.003087 5.40548e-05 0)
(0.00308251 5.57116e-05 0)
(0.00307786 5.70252e-05 0)
(0.00307306 5.79784e-05 0)
(0.00306815 5.85553e-05 0)
(0.00306314 5.87414e-05 0)
(0.00305808 5.85242e-05 0)
(0.00305299 5.78911e-05 0)
(0.0030479 5.6841e-05 0)
(0.00288388 2.00102e-06 0)
(0.00311912 6.43808e-06 0)
(0.00312681 1.11736e-05 0)
(0.00312607 1.57688e-05 0)
(0.00312472 2.03104e-05 0)
(0.00312301 2.47475e-05 0)
(0.00312097 2.9063e-05 0)
(0.0031186 3.32331e-05 0)
(0.00311591 3.72349e-05 0)
(0.0031129 4.10457e-05 0)
(0.00310958 4.46426e-05 0)
(0.00310598 4.80027e-05 0)
(0.00310209 5.11036e-05 0)
(0.00309794 5.39228e-05 0)
(0.00309354 5.64383e-05 0)
(0.00308892 5.86285e-05 0)
(0.00308409 6.04725e-05 0)
(0.00307907 6.195e-05 0)
(0.00307389 6.30417e-05 0)
(0.00306858 6.37297e-05 0)
(0.00306316 6.39972e-05 0)
(0.00305767 6.38299e-05 0)
(0.00305214 6.32131e-05 0)
(0.00304661 6.21436e-05 0)
(0.00288822 2.15588e-06 0)
(0.00312398 6.93757e-06 0)
(0.00313165 1.20425e-05 0)
(0.00313084 1.69976e-05 0)
(0.00312939 2.18975e-05 0)
(0.00312758 2.66878e-05 0)
(0.0031254 3.13507e-05 0)
(0.00312287 3.58611e-05 0)
(0.00311999 4.0195e-05 0)
(0.00311677 4.4328e-05 0)
(0.00311322 4.82359e-05 0)
(0.00310936 5.18943e-05 0)
(0.0031052 5.52791e-05 0)
(0.00310074 5.8366e-05 0)
(0.00309602 6.11311e-05 0)
(0.00309105 6.35509e-05 0)
(0.00308585 6.56024e-05 0)
(0.00308044 6.7263e-05 0)
(0.00307485 6.85113e-05 0)
(0.00306911 6.93269e-05 0)
(0.00306325 6.96908e-05 0)
(0.0030573 6.95861e-05 0)
(0.00305129 6.89959e-05 0)
(0.00304528 6.79145e-05 0)
(0.00289289 2.32081e-06 0)
(0.00312921 7.46971e-06 0)
(0.00313686 1.29683e-05 0)
(0.00313598 1.83074e-05 0)
(0.00313444 2.35897e-05 0)
(0.00313251 2.87575e-05 0)
(0.00313019 3.3792e-05 0)
(0.00312748 3.86672e-05 0)
(0.00312441 4.33574e-05 0)
(0.00312097 4.78372e-05 0)
(0.00311718 5.20806e-05 0)
(0.00311305 5.60617e-05 0)
(0.00310859 5.97546e-05 0)
(0.00310382 6.31332e-05 0)
(0.00309875 6.61717e-05 0)
(0.00309341 6.88443e-05 0)
(0.00308781 7.11257e-05 0)
(0.00308199 7.2991e-05 0)
(0.00307596 7.44163e-05 0)
(0.00306976 7.53785e-05 0)
(0.00306342 7.5856e-05 0)
(0.00305697 7.5829e-05 0)
(0.00305046 7.5278e-05 0)
(0.00304392 7.41943e-05 0)
(0.00289793 2.49623e-06 0)
(0.00313484 8.03587e-06 0)
(0.00314247 1.39536e-05 0)
(0.00314152 1.97016e-05 0)
(0.00313988 2.53917e-05 0)
(0.00313782 3.09622e-05 0)
(0.00313535 3.6394e-05 0)
(0.00313247 4.16596e-05 0)
(0.0031292 4.67321e-05 0)
(0.00312553 5.15846e-05 0)
(0.00312148 5.61896e-05 0)
(0.00311707 6.05196e-05 0)
(0.0031123 6.45468e-05 0)
(0.00310719 6.82432e-05 0)
(0.00310176 7.15808e-05 0)
(0.00309603 7.45317e-05 0)
(0.00309001 7.70679e-05 0)
(0.00308375 7.91621e-05 0)
(0.00307725 8.07874e-05 0)
(0.00307056 8.1918e-05 0)
(0.0030637 8.25289e-05 0)
(0.00305672 8.25975e-05 0)
(0.00304965 8.2101e-05 0)
(0.00304255 8.10272e-05 0)
(0.00290334 2.68255e-06 0)
(0.00314089 8.6374e-06 0)
(0.00314851 1.50008e-05 0)
(0.00314748 2.11838e-05 0)
(0.00314575 2.73079e-05 0)
(0.00314356 3.33078e-05 0)
(0.00314093 3.91637e-05 0)
(0.00313787 4.48467e-05 0)
(0.00313438 5.03287e-05 0)
(0.00313047 5.55814e-05 0)
(0.00312616 6.05758e-05 0)
(0.00312144 6.52827e-05 0)
(0.00311635 6.96723e-05 0)
(0.00311088 7.37148e-05 0)
(0.00310507 7.73797e-05 0)
(0.00309892 8.06367e-05 0)
(0.00309247 8.34554e-05 0)
(0.00308573 8.58053e-05 0)
(0.00307873 8.76567e-05 0)
(0.00307151 8.89803e-05 0)
(0.00306411 8.97478e-05 0)
(0.00305655 8.99329e-05 0)
(0.00304889 8.95094e-05 0)
(0.00304116 8.84608e-05 0)
(0.00290915 2.88014e-06 0)
(0.0031474 9.27557e-06 0)
(0.003155 1.61121e-05 0)
(0.0031539 2.27572e-05 0)
(0.00315205 2.93428e-05 0)
(0.00314973 3.57997e-05 0)
(0.00314694 4.21076e-05 0)
(0.00314369 4.82363e-05 0)
(0.00313998 5.41567e-05 0)
(0.00313582 5.98387e-05 0)
(0.00313123 6.5252e-05 0)
(0.0031262 7.03656e-05 0)
(0.00312077 7.51479e-05 0)
(0.00311493 7.95668e-05 0)
(0.00310871 8.35897e-05 0)
(0.00310213 8.71835e-05 0)
(0.00309521 9.03149e-05 0)
(0.00308797 9.29507e-05 0)
(0.00308044 9.50574e-05 0)
(0.00307266 9.66022e-05 0)
(0.00306466 9.75531e-05 0)
(0.00305649 9.78795e-05 0)
(0.00304818 9.7551e-05 0)
(0.00303978 9.65466e-05 0)
(0.00291539 3.08938e-06 0)
(0.00315439 9.95155e-06 0)
(0.00316197 1.72896e-05 0)
(0.00316079 2.44249e-05 0)
(0.00315884 3.15005e-05 0)
(0.00315638 3.84431e-05 0)
(0.00315342 4.52321e-05 0)
(0.00314997 5.18363e-05 0)
(0.00314603 5.8225e-05 0)
(0.00314161 6.43671e-05 0)
(0.00313673 7.02305e-05 0)
(0.00313138 7.57827e-05 0)
(0.00312559 8.09899e-05 0)
(0.00311936 8.58181e-05 0)
(0.00311272 9.02321e-05 0)
(0.00310568 9.41962e-05 0)
(0.00309826 9.76741e-05 0)
(0.00309049 0.000100629 0)
(0.0030824 0.000103024 0)
(0.00307403 0.000104822 0)
(0.00306539 0.000105987 0)
(0.00305655 0.000106484 0)
(0.00304755 0.000106277 0)
(0.00303844 0.00010534 0)
(0.00292208 3.31056e-06 0)
(0.00316189 1.06664e-05 0)
(0.00316946 1.85353e-05 0)
(0.00316819 2.61895e-05 0)
(0.00316613 3.37845e-05 0)
(0.00316352 4.12427e-05 0)
(0.00316039 4.85431e-05 0)
(0.00315673 5.56535e-05 0)
(0.00315256 6.25422e-05 0)
(0.00314788 6.91765e-05 0)
(0.00314269 7.55231e-05 0)
(0.00313701 8.15475e-05 0)
(0.00313085 8.72144e-05 0)
(0.00312421 9.24871e-05 0)
(0.00311713 9.73282e-05 0)
(0.00310961 0.000101699 0)
(0.00310167 0.00010556 0)
(0.00309334 0.000108871 0)
(0.00308466 0.000111592 0)
(0.00307564 0.00011368 0)
(0.00306634 0.000115094 0)
(0.00305678 0.000115795 0)
(0.00304703 0.000115742 0)
(0.00303714 0.0001149 0)
(0.00292924 3.54396e-06 0)
(0.00316992 1.14211e-05 0)
(0.00317748 1.98508e-05 0)
(0.00317613 2.80537e-05 0)
(0.00317395 3.61983e-05 0)
(0.0031712 4.42027e-05 0)
(0.00316789 5.20459e-05 0)
(0.00316402 5.96946e-05 0)
(0.00315961 6.7116e-05 0)
(0.00315465 7.42764e-05 0)
(0.00314915 8.11408e-05 0)
(0.00314312 8.76733e-05 0)
(0.00313658 9.38364e-05 0)
(0.00312952 9.95915e-05 0)
(0.00312197 0.000104899 0)
(0.00311395 0.000109716 0)
(0.00310547 0.000114001 0)
(0.00309656 0.00011771 0)
(0.00308724 0.000120797 0)
(0.00307755 0.000123216 0)
(0.00306752 0.000124921 0)
(0.00305721 0.000125865 0)
(0.00304666 0.000126002 0)
(0.00303592 0.000125292 0)
(0.00293691 3.78981e-06 0)
(0.00317852 1.22164e-05 0)
(0.00318607 2.12375e-05 0)
(0.00318463 3.00194e-05 0)
(0.00318233 3.87446e-05 0)
(0.00317943 4.73268e-05 0)
(0.00317594 5.57451e-05 0)